# vtk DataFile Version 3.0
d-2__ created by libgimli-v1.0.12
ASCII
DATASET UNSTRUCTURED_GRID
POINTS 598 double
0	0	0
0	-39.166666666667	0
120	-39.166666666667	0
120	0	0
1.25	0	0
2.5	0	0
3.75	0	0
5	0	0
6.25	0	0
7.5	0	0
8.75	0	0
10	0	0
11.25	0	0
12.5	0	0
13.75	0	0
15	0	0
16.25	0	0
17.5	0	0
18.75	0	0
20	0	0
21.25	0	0
22.5	0	0
23.75	0	0
25	0	0
26.25	0	0
27.5	0	0
28.75	0	0
30	0	0
31.25	0	0
32.5	0	0
33.75	0	0
35	0	0
36.25	0	0
37.5	0	0
38.75	0	0
40	0	0
41.25	0	0
42.5	0	0
43.75	0	0
45	0	0
46.25	0	0
47.5	0	0
48.75	0	0
50	0	0
51.25	0	0
52.5	0	0
53.75	0	0
55	0	0
56.25	0	0
57.5	0	0
58.75	0	0
60	0	0
61.25	0	0
62.5	0	0
63.75	0	0
65	0	0
66.25	0	0
67.5	0	0
68.75	0	0
70	0	0
71.25	0	0
72.5	0	0
73.75	0	0
75	0	0
76.25	0	0
77.5	0	0
78.75	0	0
80	0	0
81.25	0	0
82.5	0	0
83.75	0	0
85	0	0
86.25	0	0
87.5	0	0
88.75	0	0
90	0	0
91.25	0	0
92.5	0	0
93.75	0	0
95	0	0
96.25	0	0
97.5	0	0
98.75	0	0
100	0	0
101.25	0	0
102.5	0	0
103.75	0	0
105	0	0
106.25	0	0
107.5	0	0
108.75	0	0
110	0	0
111.25	0	0
112.5	0	0
113.75	0	0
115	0	0
116.25	0	0
117.5	0	0
118.75	0	0
60	-39.166666666667	0
0	-16	0
59.442454621585	-1.4266468585282	0
25.607243295583	-1.6431615396637	0
36.935556230264	-1.4041662522911	0
46.979534820316	-1.4986583022129	0
68.371267174337	-1.56538770176	0
79.463520171679	-1.4619109204885	0
90.628969854794	-1.3775174062516	0
101.75654708729	-1.4851723111882	0
110.63156156232	-1.5855907257647	0
120	-16	0
8.2425130232827	-1.3388308087904	0
0	-8	0
16.918437560523	-1.4686564494162	0
58.006059138152	-1.4746802618036	0
62.932836225737	-1.5103681557867	0
60.747195227347	-1.2006747940162	0
24.242872595633	-1.0936238159706	0
30.609545859168	-1.3104226462446	0
28.223706192913	-1.2751163310713	0
26.977425893108	-1.1177911491019	0
41.896974470397	-1.6393315901895	0
39.337806419045	-1.2055384474584	0
38.171142921157	-1.0383735931136	0
35.550596319731	-1.1296293853509	0
51.89692848077	-1.386505939585	0
49.473624374537	-1.1857115032209	0
48.27332159261	-1.0765532122788	0
45.657708466632	-1.0385556322192	0
66.997115838105	-1.1287276132061	0
73.165965019716	-1.154205272798	0
70.840291365605	-1.2208463091792	0
69.603071173655	-1.0783096890691	0
78.030770436758	-1.1255624193396	0
84.407597884392	-1.1687469886374	0
82.018092707086	-1.2706050058807	0
95.520032925799	-1.6270518104554	0
93.035989742274	-1.1927104948752	0
91.879727527902	-1.0242338797839	0
89.251278773079	-1.0907594111938	0
105.42333217245	-1.5937396906919	0
103.20168774648	-1.1795318254304	0
100.53852416576	-0.94862529576843	0
120	-8	0
113.39130595558	-1.6123356692882	0
111.96081840034	-1.1897413770755	0
109.38515529025	-1.0767102160415	0
6.8752821870284	-1.3712452050518	0
11.705445713321	-1.4844159026684	0
9.5194141746601	-1.1571944916496	0
0	-4	0
15.676189560967	-1.0439183646222	0
20.737651650661	-1.6719037671447	0
18.290209285669	-1.1799280492793	0
56.623303304766	-1.2543865161824	0
64.432349448635	-1.4887102122795	0
61.351597485408	-3.6021030207999	0
61.811486880952	-0.97904015438292	0
23.08427048273	-1.134574056815	0
33.252909791004	-1.5036184927739	0
31.8685940652	-1.1354831740358	0
29.399948129822	-1.0739054279873	0
27.324002825833	-2.6606401823934	0
43.272136171249	-1.152562058009	0
40.543158501041	-1.075275053411	0
38.337455071591	-2.5651118069542	0
34.458438093611	-0.95952317473716	0
54.364769365054	-1.2950957707789	0
53.146319714813	-0.98074908926004	0
50.629026774018	-0.98377906592332	0
48.656584276511	-2.6761634822505	0
44.493402160546	-1.2482121731106	0
65.833740718867	-1.4196158512135	0
71.982667547941	-1.0018994325104	0
75.699557790213	-1.3610785816193	0
74.370732777549	-0.96642743093937	0
70.067501745234	-2.591537765059	0
76.927555938708	-0.91828661030604	0
83.213094081883	-1.0252014584695	0
86.93716727254	-1.3541552554384	0
85.614117756667	-0.96971164496155	0
80.747593280979	-1.1065433637152	0
98.36684126347	-1.5328079569402	0
96.930937019968	-1.1857711928632	0
94.234202742976	-1.0661263930353	0
91.973421784048	-2.5386441668177	0
88.164372686216	-0.90296768872891	0
106.96026139412	-1.4838764043438	0
103.53975738117	-3.6058246248773	0
104.28473428942	-0.99326399927803	0
99.556879584586	-0.95662849116982	0
114.62445673544	-1.0582194945366	0
112.03989411294	-2.734903941798	0
108.28706863725	-1.3181678337577	0
5.5348553442472	-1.2528339325754	0
13.196003851572	-1.435365459512	0
10.128026304868	-3.5302626547032	0
10.576053666708	-0.95668300342442	0
14.070937580835	-3.0699562102603	0
14.558109122308	-1.32767764413	0
18.611559554306	-3.6532606089125	0
19.390765820854	-1.0147546150481	0
55.550507923206	-0.95071172218446	0
56.917104455688	-2.8918161516147	0
61.635114478973	-2.178907665021	0
21.967898596466	-0.97214278981889	0
23.78873024903	-2.6777185477664	0
35.610232360508	-3.6475732560972	0
31.751009558231	-2.846368724896	0
29.434765546315	-2.7713969426873	0
40.230363630068	-2.5139742319479	0
53.215882746722	-2.2052339372825	0
50.519401771148	-2.3275809471738	0
43.711452194658	-2.8445329678184	0
65.297197179626	-3.2360376772074	0
72.167106257862	-2.6192589377265	0
77.952161435033	-3.6541836104596	0
74.243530740747	-2.3017217337649	0
83.382801927251	-2.6711263446154	0
89.134787848813	-3.5815178978819	0
85.467013108064	-2.3108731597985	0
81.00222489686	-2.7845093578285	0
100.17508412234	-4.1102040579562	0
97.011143570432	-2.7657446671235	0
93.856511985803	-2.5025818422674	0
104.05090047883	-2.1911573434176	0
115.77138532555	-1.1153395043149	0
120	-4	0
107.8709461235	-2.8650705497848	0
4.2764888376793	-1.147502340932	0
6.0573077216705	-2.6353969777833	0
10.414735775379	-2.1300654708932	0
19.180860712262	-2.2069134749707	0
55.511342898652	-2.1950808118474	0
60.359616225568	-2.6118711495677	0
58.805155420251	-3.2692740203005	0
60.190382310801	-3.9910291270998	0
59.41835042595	-5.4098236645813	0
61.038006572388	-5.0575124893793	0
62.625060463117	-3.157853507598	0
22.275233127751	-2.0448998563854	0
34.753505811134	-2.1482718072222	0
45.557147511941	-2.4155764308363	0
67.049256633243	-2.6412658876285	0
77.158245396073	-2.0910524121323	0
88.373217243847	-2.0552221363858	0
100.12633002136	-2.3015746873245	0
102.87113643634	-2.4047191896792	0
101.80360598984	-3.5587406369192	0
104.98679557819	-3.3631150467723	0
116.9930921987	-1.0306439150514	0
115.22070608425	-2.537197057551	0
120	-2	0
109.26486474038	-2.4668560910733	0
4.7569761817697	-2.354026995713	0
9.1526777816435	-2.4949553224137	0
7.6786018001102	-2.9871766797408	0
8.9526965648521	-3.8081029362291	0
8.0663528837849	-5.0475454825061	0
9.7613662313046	-4.9607503317235	0
11.425923640317	-3.1311384366381	0
3.0752774316075	-1.0513990355927	0
0	-2	0
15.658360809741	-2.3964417638739	0
18.010261071642	-2.355766641412	0
17.05345315307	-3.2423055503666	0
15.675692679661	-4.1782306065978	0
20.052992197357	-3.3313749133959	0
55.23588850744	-4.065137861401	0
60.915224920271	-6.8870319560963	0
62.310376697812	-4.5879620056856	0
33.746757660544	-3.3799380541879	0
35.933949483083	-2.2325847502559	0
37.365449886175	-4.1828885549819	0
36.835095218235	-2.8090928741853	0
75.957056040411	-3.2005901980993	0
78.38560059541	-2.2537988987217	0
79.803478686146	-4.4069187762822	0
79.321667989465	-2.914681089099	0
87.158983723764	-3.1906970451929	0
89.569597629807	-2.1781862940077	0
90.905548701022	-4.1403458160196	0
90.444135998991	-2.7653638848945	0
98.675925102695	-3.5143595555159	0
101.09732269113	-5.6654464944938	0
118.01433842609	-0.91040252051362	0
116.55433286351	-2.029412813755	0
120	-1	0
118.95507588032	-1.4061697212621	0
117.87863717861	-2.0992987418975	0
119.09259120124	-2.4116567441271	0
118.63315798497	-3.5416906662754	0
120	-3	0
4.042279841449	-4.371363849099	0
9.4859358327792	-6.8287793646318	0
11.111815375478	-4.5924783883239	0
2.0598094475148	-0.91178537022513	0
3.547220097434	-2.2224829572429	0
0	-1	0
1.1537235164978	-1.4821488102224	0
1.2930426174823	-2.956142907212	0
2.3228624494473	-2.0257814461386	0
2.8120523695265	-3.5313293853157	0
21.807212214805	-3.751749168457	0
62.082306772433	-5.8474331543284	0
63.748195316232	-4.2970904024511	0
116.91927398756	-3.3345016976482	0
120	-6	0
10.849687471395	-5.9140622652963	0
12.615386279365	-4.3091677423861	0
4.0480369871737	-3.2237146377032	0
5.0881468687275	-3.6368387595331	0
5.2094310696258	-5.037250230921	0
6.4298856256995	-4.196547352418	0
118.95170331356	-4.987067289059	0
117.60457287194	-4.9244727295482	0
118.53151089208	-6.4463138365181	0
25.715773354739	-3.9208081310686	0
41.757794396121	-3.8228023823199	0
63.805737453451	-2.7394771652916	0
46.939103850914	-3.2117813455365	0
45.538526697567	-4.6017878378258	0
47.933334419642	-4.8152619110837	0
68.677743942664	-3.4744380798073	0
67.15414402864	-4.9896624394764	0
70.786565437273	-5.5405184859271	0
106.43919895717	-3.1084439793976	0
105.9929573575	-4.8850242717121	0
107.40486516811	-4.4351435020708	0
107.84240221673	-6.9421060024913	0
108.8838905933	-4.3375304511971	0
113.67155443112	-3.709416509304	0
110.54334217703	-3.588166930218	0
112.06693138834	-4.6723750366729	0
12.60191579187	-2.6883427672811	0
54.367531279692	-2.6926138991525	0
53.755395160519	-5.2269860181846	0
53.501287485064	-3.6827554385057	0
52.001479541305	-3.1508352772524	0
52.412117578926	-4.7219615313826	0
50.439432279188	-4.5460545962933	0
52.333708650516	-6.975580046372	0
34.483937863111	-5.3228929783028	0
76.587745478885	-5.2747830395028	0
87.733548812799	-5.3215721049862	0
99.136837313423	-5.4935168061293	0
1.4768883215955	-4.7000153040797	0
19.935724741415	-5.3332633798251	0
63.060134007597	-5.5336633877914	0
63.12747861238	-7.1475163642909	0
64.074847502409	-5.7603198832018	0
11.910863364281	-5.6509911172926	0
11.988321258174	-7.4885510754761	0
12.99465499298	-5.8949213610395	0
6.4921113498509	-5.8336409946337	0
104.47539361031	-4.7683336888918	0
115.64098874381	-4.8389015942114	0
0	-6	0
2.9654385450922	-5.2231695677346	0
64.87443788433	-9.5141842354949	0
65.121174373212	-5.0159386269894	0
14.19729684515	-9.1993866824953	0
14.205101100211	-5.0515859475326	0
5.370438526491	-7.9858867448635	0
7.7050521117581	-6.6931269694841	0
6.4947603334717	-7.4211446979806	0
[...]
CELL_DATA 1063
SCALARS Coverage double 1
LOOKUP_TABLE default
12.031782701516 11.729259890659 12.316971307184 19.959141950502 1.25 9.8790309208606 8.4683701239212 7.8716366624662 26.866155181292 5.383744047608 1.25 5.3366817733864 2.0034231477435 17.750368729352 41.561282049459 1.25 19.337136557242 11.938551637587 1.25 19.689498403318 0 0 23.186015120387 30.321846068437 1.25 1.8228862103752 14.268841911155 1.25 31.782035178833 2.8862368456229 3.737567385504 1.25 2.675568380661 0 23.612319735891 7.4494735793412 0 1.25 1.25 0 1.25 7.5838371568761 1.25 5.9942332253659 1.25 1.25 18.737335921488 15.688272220364 26.152752536256 10.414895005167 1.25 0 0.32326272751621 12.137704281095 1.25 5.0950837396057 9.1473054457496 6.6108293554687 6.5467844497882 4.8407004123095 1.25 1.25 0 19.201006613103 21.020420823956 23.626207878856 3.2480720175778 1.25 15.186616595294 0 20.422690730201 1.25 27.883698377508 9.1823084755566 18.24546804918 13.652182702938 1.25 7.5778154810501 6.8237653703564 0 18.15476632875 1.25 0 4.2739669163606 4.2868760533958 0 24.072143068298 0 1.25 9.8494132190996 1.25 1.25 1.25 8.4745813538387 10.43231858448 48.481861994993 6.9932109802322 30.520298796648 1.25 13.021101682203 9.5357482757322 13.484435783817 0 0 0 1.25 5.5296522094655 17.313910711955 0 1.25 21.734239982749 20.909478873262 5.1965279551159 0 1.25 17.385519639297 10.44552034669 1.25 1.25 0 1.25 15.665044885824 1.25 4.4963028998819 1.25 1.25 1.25 25.474398046666 15.690901552693 5.9239534269124 8.9325260360893 26.466601618025 0 1.25 1.25 1.25 26.310249994757 6.001850082276 5.6208557172227 31.25475780155 1.25 20.190670114391 27.076474278636 6.4877497855817 1.25 1.25 0 10.471216879692 2.5034552163505 26.786058257169 1.25 6.291365377246 1.25 16.499030953182 3.9523340958618 0 1.25 10.79750738043 1.25 1.25 31.91218068922 3.1822796621591 21.516348922964 1.25 0 0 18.17929582647 0 17.373272336722 0 28.603778115158 1.25 9.4185490022132 30.148818948971 0.82255097582944 1.25 7.8034684930655 1.25 12.90011411236 19.040149887466 6.0831658641806 10.667367393413 5.9258025211886 1.25 1.25 1.25 11.917367393413 20.744365307289 0.34647757346101 9.144946082846 1.25 10.596464418587 1.25 3.7964502834451 12.165512071645 10.308242096994 0 1.25 10.096069636061 11.451726379632 0 15.387686488014 1.25 1.25 0 12.285438587024 1.0151931128894 10.688864799221 62.316845574322 7.5459454890984 24.595731722973 2.358238921641 9.830491391902 15.046653031586 14.852120818366 12.536319670189 24.516645964116 0 6.7062913309104 10.579565739812 62.708403541957 12.712453778907 8.3670788772582 22.514354092929 10.397159590266 4.0868704119547 20.007348139602 0 11.940470234882 10.680765766773 25.08676410166 9.0999952645042 0 24.759162985376 10.776242868658 7.1035141847586 32.613060561219 0 14.586305885045 25.044854766312 12.958671447364 0 7.1041956651791 12.183619814356 6.7100504147964 18.314262228201 26.693379947152 18.719747689668 5.3194839604325 0 39.398611453936 15.433695122615 7.0040377700114 24.869761150519 0 5.5173123449383 0.2899015890949 24.610202753125 14.471220379381 21.743674831677 15.154445333167 26.80076535515 30.459452860353 0 14.823360047414 13.145124211198 33.427602441847 15.323109003233 11.44321471746 10.744735876812 0 3.2937463320497 4.9062330503098 20.411674476858 24.480019681298 0 39.959674192295 0 1.4916033593183 26.996594019709 0 18.535125932596 1.25 5.158807304712 11.778249696159 16.904654657762 4.8979636412408 2.7263033134638 7.8921939742895 0 1.9585151451671 6.9523585743348 0 13.790669304102 33.391317598615 12.530267482905 3.0609208960553 23.721209097939 20.419532067205 17.889782812931 6.6454152925866 4.8857169376568 14.916973106525 25.563630561675 0 12.741880985417 40.725044638606 37.361253717627 10.154824821167 47.475271994896 16.044495533174 5.6678513270712 17.321298372893 7.715772485021 11.037713021528 14.040441628544 10.376093672002 15.993442103868 70.132928661997 10.071376247007 22.739830680783 59.238456100491 14.027730787045 1.6194542913644 32.242171797614 0 55.417383749857 17.355633355924 51.122219594343 34.724028980301 39.0567042895 9.9856550102839 23.939940137708 3.8132966979076 97.795298766523 11.876817380348 20.13621143687 23.06956280167 10.990144125207 68.467269049158 34.285749007272 48.175707677068 6.8784736899733 13.821661286773 16.791284165809 2.5577085786448 20.626415859752 0 6.1970932178884 24.781239094046 44.556988340264 1.25 0 12.743622649438 8.3102702966134 1.2897551326093 10.863085284415 9.2308712019525 6.9165462442821 10.457718409314 38.077499282638 22.772803319276 36.06944300889 27.743427560165 33.393620308644 4.894513277782 15.971055031911 14.06918087779 16.709633181275 5.2597674587012 7.4749894586989 11.141701554983 4.469896725999 28.799392396579 6.6591936932151 21.385762109475 20.545004374925 43.752504415607 29.327451333385 11.192593271862 10.193065994817 35.55966324426 2.9110250252539 29.280152090072 16.853348809481 6.7078267801831 29.491105673835 15.644317693741 84.160178711048 12.363650621124 21.919164157912 22.962668404602 0 4.8521088058696 19.822931442905 0 25.72124079315 1.25 18.415457727797 1.2050496617867 0 24.626909421632 15.169492571573 13.603525980483 19.016192578666 10.830332794093 19.583659475357 10.275986891185 4.7330880078097 14.825204715588 5.9004115988386 12.937974086838 11.19595911595 1.25 6.6929481606529 11.243293924017 17.008153947329 8.1069851016806 10.938979442108 21.53050538408 21.361692539747 0.87254804383095 3.0210275311527 12.151198850918 16.288079121175 17.939022068296 10.949523877496 10.935517400115 67.209086350952 4.3935250061804 4.9628995013508 15.393380136197 16.404819619471 31.663317440834 24.664067142287 7.2601510049892 39.435073377166 58.875449427645 20.410717105013 8.2036665948364 16.505686191975 53.519584698673 23.064486709486 9.5599959885048 7.768895258162 64.083445544107 47.350019642199 24.427426608328 85.667162598847 35.721560228167 56.719299068431 10.772425733996 74.258738776484 30.797937774008 41.215349187779 13.519552612182 65.763491162115 54.253150286073 47.950575288593 27.016282788425 4.9090216552323 12.999053651435 3.9100064531886 16.363405517441 3.2188285406252 4.1881548334331 4.3797686160836 28.145300172798 4.0319291470806 9.1489411644118 0 23.076617255113 0 0.68930016750319 0 1.8445115624999 8.0383395633232 12.825845185515 10.561426168038 7.8767969659728 2.227908678128 6.3530221590142 11.328563636795 11.786915547565 19.125 16.172767224106 0 0.71927701418509 0 2.2580154264246 14.147251825086 11.259909626665 19.42138980526 34.737965209139 22.021984777531 82.306249730569 5.8202311880241 4.3329029766645 71.162610619169 20.546139547624 0 1.3886291904313 0 20.681092424206 9.9147008280049 15.879153375374 2.1001724675822 6.920354273681 1.0078076442947 12.174113518826 0.74483513830491 17.259696208527 11.339458481231 9.3615817977526 12.925426038277 0 32.524034285787 23.073580972974 33.146893075817 0 13.477021880861 65.662130356528 27.9255185339 27.003642356145 13.957477867288 40.795811526041 25.679810288974 7.5152664621268 7.9990740034055 13.31902536104 12.158321838063 23.121707827388 64.689087490383 22.844786502475 9.4680764794111 5.7907183589637 2.3482530785206 2.1184837527831 16.33567630166 50.346114934196 23.652898479776 0.93569549465172 0 17.585749035244 0 11.738973614648 21.739422541686 15.950839837884 40.36485440114 43.127147902408 34.039563602564 31.030273683482 26.923398931869 5.9224226392988 3.1274863380595 5.7011221195932 31.569572764655 25.004750169824 10.026753648466 19.38775067917 13.698068678739 18.527823645486 84.345537262199 34.465290039744 66.512299404785 4.5302826501834 16.532352617864 18.600433925638 12.168799755358 11.158845318564 8.1845974966608 7.9464690086427 19.993399713057 5.293422955248 44.617066918617 0 34.267841122917 30.483645371436 5 0.73571758526562 6.4745116772945 6.1999356211334 11.088264006591 1.0536155969675 43.845164878618 27.715958867133 19.522031764725 11.777361822428 7.9313299648959 17.827007680973 13.018431336885 3.6387154187366 8.1695284104675 4.730048774654 18.888529863927 1.4865871763399 13.725108941643 0 22.370797205922 0 16.937472097794 9.2326342833716 0 75.007210059356 52.746319750278 5.0905693718296 2.7640902732097 4.7811657874139 57.99990092929 15.751633494053 5.1395630253474 0 8.2526778664339 8.6546071684236 0.74329358817014 6.2625458171149 0 1.0751363407738 2.0251227837392 61.376566735274 0 1.00288443338 0 15.425580602569 21.381771169632 1.4126776699177 0 2.1672118567632 21.956295833538 0 0.6637025582752 0 0 0.6637025582752 2.1573823751012 0 21.755746725405 0 5.9730301314608 0 20.081847448299 15.631669736612 11.535793587478 15.375647553494 20.513905271305 37.692488503499 13.212354136441 33.847954199638 0 7.5508383128585 72.880188963055 8.9008008974512 21.960343436918 81.159562780381 2.1185691771248 36.395247920685 2.0713065750777 31.838071448115 16.89337640724 0.73637578669889 13.23236648921 10.274111446136 0.81317881425661 4.3706567787748 2.3762404491439 9.1571430976075 7.0229225160976 50.174979022482 25.275924540037 25.853963738389 1.1764976393438 0 4.58507327649 14.547645395185 0.76228536170658 18.35045240144 15.198346786464 2.7455268379392 0.8214195023768 68.683913381483 26.595214641603 29.508508553623 20.379033112516 45.580725951077 14.256470160686 8.1127009821709 10.198390421135 45.512709952881 29.416790301395 2.0643210914855 4.6268179940675 31.532883742392 100.43068912714 15.679055014365 2.2098204466416 53.005723177068 20.554148611422 46.046574993352 20.495255886505 14.609501302249 3.0450026353547 27.779249203667 15.72332876062 28.394607644933 10.890038871403 8.1158136844209 8.9387541844136 4.6404736631975 16.593354201659 1.7002146488456 0 0 28.678412716077 26.116875886917 16.129373716984 12.332602846976 8.3487788694459 34.905507270965 19.65037809916 0 8.9415755115295 16.19947717526 12.824152071672 1.3405937688656 11.22360108964 25.476634539607 28.309546797091 7.3751246925145 9.5286626700843 0 3.2036399078813 0 38.989407210373 2.6818007791797 20.752695694364 0 0 26.039215680094 0 16.285636976435 3.1020260907512 20.332876534895 22.421953918831 21.659859201748 2.253613455794 19.205008945829 39.664477079967 2.2299849622418 16.661262681021 10.648292931848 49.723755025393 44.67990556468 32.994697717407 5.0078349542673 93.125036742184 24.623777499719 12.039324793735 38.351154838727 14.712314105371 4.9783040063543 14.887074450368 0 11.684680532658 7.886652884092 18.488957101386 0 16.588089126167 33.952661779972 86.370477993259 0 50.052670524468 68.704257752372 27.525890909957 21.276714666469 42.764169264063 27.54579872768 19.316727530819 33.471393471353 11.967031930899 27.542309924775 29.820326664682 21.929792033288 9.3508656714277 17.115838500658 23.398373312931 7.8699554463072 38.813139425927 69.476387778349 0 35.530715836311 4.2680507323157 62.983871013001 34.643327037879 6.316017636001 13.930522509867 22.836100121063 7.6382514145598 0 4.026366267252 33.419013057439 0 0 14.525043546356 35.033271919761 32.160518412831 31.056507535851 58.287984767992 0 21.889829598624 37.360613043767 83.306641691296 32.635795793241 3.3858944591233 53.396844409621 8.6586389314002 3.0642384751399 0 29.149849375389 0 0 1.7835482461129 42.195413330381 4.7495027864452 15.233413494794 47.960587694893 52.674021469254 30.573558931299 50.252195918921 34.805874961225 144.55266979156 95.288555905022 87.239541500952 4.9280350492792 28.402432802279 40.244388929549 0 0 0 1.3570218682479 7.297857517035 1.5467038570434 0.77335192852226 45.804773158118 15.332284361825 37.067974644361 46.878592029808 37.055457227169 0 22.072236236103 0 0 13.275082451245 0 0 48.582044990807 0 0 0 82.242231097483 25.089229319506 36.909964865644 0 6.7739771969202 42.654509274193 0 42.466407972359 94.176869193779 26.665327038174 28.069442860409 94.606651855298 62.251794212876 20.494113039427 20.067119708777 81.52445285171 22.836100121063 20.616807587358 1.550979859635 0 0 0 2.9127196949266 3.3489805277727 33.118132716084 66.941753075964 50.338606555456 185.59692248959 10.662212932917 25.333600929462 29.872088362861 7.0950544453006 88.233572661581 48.759890635043 43.310929991382 7.5428552833585 60.951618520632 0 9.3431193477438 31.060324370187 42.192410309795 46.45786521433 48.723705726558 29.199976892833 39.84369827774 14.52998466044 53.684588762111 86.488804389771 26.51031492276 73.138167904401 82.820469022249 39.113125441131 13.049953720537 86.128004851576 120.25848444573 55.846067098233 193.14026588765 43.206462022397 48.015570738542 74.81656151328 28.842320074575 0 0 42.215642043184 31.660246636234 9.0819937172066 16.714710122735 36.760376508547 92.520725574449 391.68765199021 22.928641484712 64.089182772688 35.231637868929 52.367010445274 40.708877838186 45.563734395473 41.232172925571 21.805099462886 98.386559455824 73.250835551299 15.860621640345 14.935496682676 11.835410791419 24.558994509512 17.610102081225 34.992771759854 30.860727370876 34.495642543309 18.128787817527 19.798418559837 16.42567207501 24.890633464969 8.5332300689229 23.003211238621 89.802282223165 99.257348506686 14.434276287033 15.318596436409 6.3593935437378 291.14036841458 21.399284625509 4.4699169597762 0 26.933418200741 49.767802681709 47.040095857772 0 0 23.873967423547 48.29689791375 53.956482851969 67.238367143863 0 47.329800609228 0 132.23318771858 66.820928359856 20.152825292583 0 47.479114491311 123.61425363786 27.888165438708 86.482930331732 50.044925045889 74.807418637122 88.987119275115 132.48790846274 112.13332912381 223.46365816412 0 0 162.31931394568 0 166.77461414303 989.3719114223 46.185228551962 55.185794293065 2.5667380983371 122.69229484097 25.555871449085 80.519353189389 70.253748409272 124.89460645054 99.095555884448 55.846067098233 0 245.83943257402 474.43129796247 82.829361307601 0 125.64567209505 0 653.97319220762 152.63574810758 0 543.59723956628 93.831741338869 0 112.06565995657 0 0 100.67268941049 138.51362410248 143.06713748123 160.48069417421 0 33.556432003474 758.44338530819 43.728747564557 0 0 0 0 0 0 0 0 0 35.756487859987 0 0 139.57855294902 0 0 0 1032.1482520275 27.071982649227 0 314.67179669186 0 129.96703814348 0 0 201.56448998141 45.129431615577 102.36733198849 0 0 36.551468245834 377.69473402773 0 33.958728068158 281.74012985361 0 0 
SCALARS S_Coverage double 1
LOOKUP_TABLE default
1 1 1 1 1 1 1 1 1 1 1 1 1 1 1 1 1 1 1 1 1 1 1 1 1 1 1 1 1 1 1 1 1 1 1 1 1 1 1 1 1 1 1 1 1 1 1 1 1 1 1 1 1 1 1 1 1 1 1 1 1 1 1 1 1 1 1 1 1 1 1 1 1 1 1 1 1 1 1 1 1 1 1 1 1 1 1 1 1 1 1 1 1 1 1 1 1 1 1 1 1 1 1 1 1 1 1 1 1 1 1 1 1 1 1 1 1 1 1 1 1 1 1 1 1 1 1 1 1 1 1 1 1 1 1 1 1 1 1 1 1 1 1 1 1 1 1 1 1 1 1 1 1 1 1 1 1 1 1 1 1 1 1 1 1 1 1 1 1 0 1 1 1 1 1 1 1 1 1 1 1 1 1 1 1 1 1 1 1 1 1 1 1 1 1 1 1 1 1 1 1 1 1 1 1 1 1 1 1 1 1 1 1 1 1 1 1 1 1 1 1 1 1 1 1 1 1 1 1 1 1 1 1 1 1 1 1 1 1 1 1 1 1 1 1 1 1 1 1 1 1 1 1 1 1 1 1 1 1 1 1 1 1 1 1 1 1 1 1 1 1 1 1 1 1 1 1 1 1 1 0 1 1 1 1 1 1 1 1 1 1 1 1 1 1 1 1 1 1 1 1 1 1 1 1 1 1 1 1 1 1 1 1 1 1 1 1 1 1 1 1 1 1 1 1 1 1 1 1 1 1 1 1 1 1 1 1 1 1 1 1 1 1 1 1 1 1 1 1 1 1 1 1 1 1 1 1 1 1 1 1 1 1 1 1 1 1 1 1 1 1 1 1 1 1 1 1 1 1 1 1 1 1 1 1 1 1 1 1 1 1 1 1 1 1 0 1 1 1 1 1 1 1 1 1 1 1 1 1 1 1 1 1 1 1 1 1 1 1 1 1 1 1 1 1 1 1 1 1 1 1 1 1 1 1 1 1 1 1 1 1 1 1 1 1 1 1 1 1 1 1 1 1 1 1 1 1 1 1 1 1 1 1 1 1 1 1 1 1 1 1 1 0 1 1 1 1 1 1 1 1 1 1 1 1 1 1 1 1 1 1 1 1 1 1 1 1 1 1 1 0 1 0 1 1 1 1 1 1 1 1 1 1 1 1 1 1 1 1 1 1 1 1 1 1 1 1 1 1 1 1 1 1 1 1 1 1 1 1 1 1 1 1 1 1 1 1 1 1 1 1 1 1 1 1 1 1 1 1 1 1 1 1 1 1 1 1 1 1 1 1 1 1 1 1 1 1 1 1 1 1 1 1 1 1 1 1 1 1 1 1 1 1 1 1 1 1 1 1 1 1 1 1 1 1 1 1 1 1 1 1 1 1 1 1 1 1 1 1 1 1 1 0 1 1 1 1 1 1 1 1 0 1 1 1 1 1 1 1 0 1 1 1 1 1 1 1 1 1 1 1 1 1 1 1 1 1 1 1 1 1 1 1 1 1 1 1 1 1 1 1 0 1 1 1 1 1 1 1 1 1 1 1 1 1 1 1 1 1 1 1 1 1 1 1 1 1 1 1 1 1 1 1 1 1 1 1 1 1 1 0 1 1 1 1 1 1 1 1 0 1 1 1 1 1 1 1 1 1 1 1 1 1 1 1 0 1 1 1 1 1 1 1 1 1 1 1 1 1 1 1 1 1 1 1 1 1 1 1 1 1 0 1 1 1 1 1 1 1 1 1 1 1 1 1 1 1 1 1 1 1 1 1 1 1 1 1 1 1 1 1 1 1 1 1 1 1 1 1 1 0 0 1 1 1 1 1 0 1 1 1 1 1 1 1 1 1 1 0 0 1 1 1 1 1 1 1 1 1 1 1 1 1 1 1 0 1 0 1 1 1 1 1 1 1 1 1 1 1 0 0 1 0 1 1 1 1 0 1 1 1 0 1 1 0 1 1 1 1 1 1 1 1 1 1 1 1 0 0 0 1 1 1 1 1 1 1 1 1 1 1 1 1 1 1 1 1 1 1 1 1 1 1 1 1 1 1 1 1 1 1 1 1 1 1 1 1 1 1 1 0 1 1 1 1 1 1 1 1 1 1 1 1 1 1 1 1 1 1 1 1 1 1 1 1 1 1 1 1 1 1 1 1 1 1 1 1 1 1 1 0 1 1 1 1 0 1 1 1 1 0 1 0 1 1 1 1 1 1 1 1 1 1 1 1 1 1 0 0 1 1 1 1 1 1 1 1 1 1 1 1 1 1 1 1 1 1 0 1 1 1 1 0 1 1 1 1 1 1 1 1 1 1 0 1 1 1 1 0 0 0 0 0 1 0 0 1 1 0 1 1 0 0 1 1 1 1 1 1 0 1 1 1 1 1 0 1 1 1 1 1 1 1 
SCALARS Velocity double 1
LOOKUP_TABLE default