# vtk DataFile Version 3.0
d-2__ created by libgimli-v1.0.12
ASCII
DATASET UNSTRUCTURED_GRID
POINTS 542 double
0	0	0
0	-39.166666666667	0
120	-38.366666666667	0
120	0.8	0
1.25	0	0
2.5	0	0
3.75	0	0
5	0	0
6.25	0	0
7.5	0	0
8.75	0	0
10	0	0
11.25	0	0
12.5	0	0
13.75	0	0
15	0	0
16.25	0	0
17.5	0	0
18.75	0	0
20	0	0
21.25	0	0
22.5	0	0
23.75	0	0
25	0	0
26.25	0	0
27.5	0	0
28.75	0.225	0
30	0.45	0
31.25	0.675	0
32.5	0.9	0
33.75	1.3	0
35	1.7	0
36.25	2.1	0
37.5	2.5	0
38.75	2.55	0
40	2.6	0
41.25	2.65	0
42.5	2.7	0
43.75	2.675	0
45	2.65	0
46.25	2.625	0
47.5	2.6	0
48.75	2.6	0
50	2.6	0
51.25	2.6	0
52.5	2.6	0
53.75	2.6	0
55	2.6	0
56.25	2.6	0
57.5	2.6	0
58.75	2.5625	0
60	2.525	0
61.25	2.4875	0
62.5	2.45	0
63.75	2.4125	0
65	2.375	0
66.25	2.3375	0
67.5	2.3	0
68.75	2.2625	0
70	2.225	0
71.25	2.1875	0
72.5	2.15	0
73.75	2.1125	0
75	2.075	0
76.25	2.0375	0
77.5	2	0
78.75	1.9625	0
80	1.925	0
81.25	1.8875	0
82.5	1.85	0
83.75	1.8125	0
85	1.775	0
86.25	1.7375	0
87.5	1.7	0
88.75	1.6625	0
90	1.625	0
91.25	1.5875	0
92.5	1.55	0
93.75	1.5125	0
95	1.475	0
96.25	1.4375	0
97.5	1.4	0
98.75	1.3625	0
100	1.325	0
101.25	1.2875	0
102.5	1.25	0
103.75	1.2125	0
105	1.175	0
106.25	1.1375	0
107.5	1.1	0
108.75	1.0625	0
110	1.025	0
111.25	0.9875	0
112.5	0.95	0
113.75	0.9125	0
115	0.875	0
116.25	0.8375	0
117.5	0.8	0
118.75	0.8	0
0	-16	0
25.499204629202	-1.5132336281532	0
34.702807272469	-0.12035353525812	0
60	-38.766666666667	0
99.167271048088	-0.15323640452508	0
120	-15.2	0
8.239028014224	-1.3353219915394	0
0	-8	0
16.865763287009	-1.4808338212766	0
24.26532871325	-1.1027789249187	0
29.727864302956	-1.248386893888	0
27.077768619249	-1.4742987179963	0
45.784417706502	1.2277314465935	0
39.082950789346	0.84529646649729	0
35.899803603328	0.69982223007933	0
33.304895555074	-0.055873938105274	0
68.154150326239	0.90755502219523	0
56.856100215837	1.1617219571067	0
88.130535824238	0.34869918941711	0
77.842647282022	0.63151509410135	0
105.67453498475	-0.2237861269655	0
101.8986209849	-0.18931366139032	0
97.934690979543	0.36365739100076	0
114.23023068761	-0.61297251024944	0
6.8729624407719	-1.3684950749251	0
11.687744936603	-1.4773209635872	0
9.5146295992958	-1.1536498785808	0
0	-4	0
15.644263665609	-1.0473397156248	0
20.697473907635	-1.7715815272798	0
18.249169178817	-1.2020231683382	0
23.123140759838	-1.1903787676857	0
30.917779167441	-0.53378314703134	0
28.304587304082	-1.0231223184769	0
44.341969455835	1.4232362839371	0
50.556805857456	1.040109774304	0
47.064908669087	1.5663525871411	0
37.761356518097	1.717737334565	0
42.007159759695	1.1191529949002	0
40.615590578567	1.4240772676449	0
71.749446853534	0.79998921584994	0
69.483106162446	1.0855473226338	0
66.728644336722	0.93030025580964	0
61.91626777807	0.94757092487241	0
59.355321483251	1.0638197923206	0
58.104137251894	1.5145962338194	0
55.492210395222	1.4512612806556	0
86.715788389966	0.37706491863589	0
93.098366151559	-0.27618328607073	0
89.454929643925	0.51430032862799	0
76.690427286607	1.1552041107671	0
81.705452687476	0.31240561088241	0
79.342846352004	0.79606671408566	0
104.2584957549	0.014571199283406	0
109.21088339467	-0.35648521785571	0
106.98778093598	0.033415434143669	0
100.56226293818	0.20297897244458	0
96.794930322328	0.34449602624414	0
120	-7.2	0
120	-3.2	0
112.83023609564	-0.23636198366265	0
5.5339120927363	-1.2516570726249	0
13.16630298554	-1.4297573482859	0
10.0981368898	-3.5044055496333	0
10.569413191758	-0.95315611351241	0
13.977012628564	-3.0574487648354	0
14.519965651636	-1.326321416585	0
18.408304283643	-3.6941142076006	0
19.359467495325	-1.0502081650436	0
21.974120918078	-1.0323769924342	0
23.93112773406	-2.7951864450411	0
32.142432429146	-0.4886103123413	0
26.419666776516	-3.6768432307407	0
43.207756875317	1.6507390643125	0
53.227622507609	1.1535998961868	0
51.894059741291	1.4818347726915	0
49.076956127515	1.4284501505451	0
47.432455618837	-0.91287708162347	0
38.013160910632	-1.0013152607658	0
43.962860681555	-1.3186128192318	0
40.739766162227	-0.088350549254313	0
74.469106519911	0.68944542338634	0
70.093427871901	-1.24539698653	0
70.572252926807	1.2825123628117	0
65.396225256517	1.2069785262776	0
63.345503813533	1.2493742319762	0
60.632180581498	1.4022017143852	0
58.05741641611	0.19263817513342	0
54.417994031115	1.6472291884535	0
85.390549482957	0.62316074789993	0
94.686059059447	0.21416678221743	0
91.535663946811	0.2976317331085	0
90.002951762198	-1.8814672573501	0
90.515403007736	0.71826784023285	0
75.711998285085	1.1779802306041	0
83.284919311297	0.60230812426699	0
79.246218538658	-1.7570855155135	0
80.487869795839	0.9218907742962	0
103.14067921404	0.25930432077914	0
103.71058580876	-2.5406583191529	0
110.72007234299	-0.1389540865469	0
107.01339975824	-2.4105611659656	0
108.04745299865	0.17607509969788	0
100.49002662659	-1.2402431632016	0
95.725719011455	0.57777955637959	0
97.462682712796	-1.1132318340948	0
115.66458349002	-0.42347395302958	0
4.2761515204849	-1.1470715376279	0
6.0533203223189	-2.6299159136274	0
10.397962142752	-2.119095191529	0
19.08858755208	-2.2636131104325	0
22.286153250705	-2.1893807354456	0
31.445927236327	-2.0425017962195	0
55.284287351043	-1.1987346279111	0
51.938961539855	0.025776155301175	0
48.065131213027	1.7771694459288	0
49.166422057193	-0.12380310879148	0
43.448382055498	0.34027061603515	0
73.091661277382	1.0833439331012	0
76.211680414349	-1.7575222120398	0
70.401397032932	0.12730083770362	0
64.374213145508	1.5274925481836	0
65.651611705847	-0.30364917235798	0
60.638915014521	0.001367952767512	0
84.357070532823	0.9148010284394	0
85.651331552425	-0.81123380040302	0
91.516308392396	-1.347730199495	0
90.336997435673	-0.42279587742691	0
80.142141634111	-0.30054652007276	0
103.29037817831	-0.97937981855229	0
111.58961271192	-2.600525345775	0
111.80191962189	0.10478921706572	0
107.79148586534	-0.94838240816568	0
95.900816113953	-0.56827189750486	0
116.96226984884	-0.36800564311016	0
120	-1.2	0
115.3103453986	-2.9013087848652	0
4.7554986246618	-2.3519525951991	0
9.1396108114482	-2.4829951648566	0
7.6676207858353	-2.9733063725885	0
8.928237279958	-3.7803771186203	0
8.032387080686	-4.998410214637	0
9.706397588299	-4.8987554406514	0
11.381695666744	-3.1063856831134	0
3.0751590622115	-1.0512400936679	0
0	-2	0
15.570194495052	-2.402472443584	0
17.906342412676	-2.3869991902609	0
16.898191405231	-3.267441228165	0
15.479550366313	-4.1857671373684	0
19.878346272128	-3.4426209598933	0
54.617439101937	0.43706697831567	0
47.943351608566	0.70168135917577	0
42.306056031322	-0.82659377404062	0
44.882885391578	0.0062991790223993	0
45.664179893757	-1.4789683728624	0
46.123087573663	-0.13660694453363	0
46.868138971506	0.48797207526898	0
73.014807611686	-0.32164189741905	0
76.163754648769	-0.056129186715905	0
69.067482693698	-0.26393806689147	0
67.444957262357	-0.83059889225339	0
68.883749078381	-1.5949185435384	0
68.074775829353	-2.9303159527696	0
69.823032834895	-2.6649752999685	0
71.497522084297	-0.86587699638525	0
64.379853026919	0.40986860168207	0
84.352456497033	-0.22636372913947	0
88.994897391743	-0.82301853567534	0
87.355782682876	-1.3057118149297	0
88.680219231874	-2.1649806015648	0
87.621848297653	-3.3770944608932	0
89.420191919826	-3.4090905406	0
78.840226215604	-0.34105898154564	0
77.641235819608	-1.0586451616306	0
81.238455477499	-1.7112828786792	0
102.03788694427	-2.0618698156027	0
104.68460996297	-1.3314647231679	0
105.29883702519	-2.6919875087916	0
105.86788015647	-1.5386080749315	0
106.66698469698	-1.0190519421609	0
112.99350293203	-1.7153977191127	0
111.71390738326	-1.0244673716342	0
108.82654726864	-2.087191195479	0
94.648512100368	-1.405796623583	0
118.02819152814	-0.19131382793133	0
120	-0.2	0
118.98058048132	-0.66139383818404	0
117.94485715281	-1.5171929489447	0
119.15711603411	-1.649893390342	0
118.85776791177	-2.6640443359268	0
120	-2.2	0
116.38102584221	-1.6920300513051	0
4.039274989691	-4.365780279656	0
9.3866813566817	-6.6911145430891	0
11.038386074212	-4.5347238961979	0
2.0597638690529	-0.91171966398778	0
3.5466520356098	-2.2216412880651	0
0	-1	0
1.1536809265416	-1.4820783438376	0
1.292807686796	-2.9556927370341	0
2.3226109303683	-2.0253677333123	0
2.8109521445769	-3.529266750162	0
21.676469899317	-4.1361419315792	0
53.477041761765	-0.69162033929656	0
55.805522776329	0.27290505113497	0
56.70418534662	-1.9278434186883	0
56.776301432007	-0.479164248842	0
74.617071112666	-1.2044544069629	0
69.749652527363	-4.5969152047673	0
71.056899094083	-2.1290744951643	0
63.153784969511	-0.21568654911457	0
83.032179852534	-1.0226594067758	0
91.064971933367	-3.060488163395	0
77.569618763388	-3.0515585802068	0
110.3538318752	-1.5401144490718	0
110.06685431884	-3.006410526701	0
108.52902421412	-4.2051863206224	0
111.03495096367	-4.5461634018425	0
96.091094206352	-1.9966813239071	0
117.23904606171	-3.3621506354257	0
120	-5.2	0
115.16055641164	-1.5500088744707	0
114.21600967199	-2.0959563780481	0
10.736928124214	-5.8021301199471	0
12.505950747203	-4.2605997754885	0
4.0463641415367	-3.2209765331045	0
5.083862361758	-3.6299555182133	0
5.2001106481489	-5.019679913939	0
6.4166867285565	-4.1758844515728	0
71.212674427224	-3.4401952949884	0
72.750711415803	-2.3907917659597	0
64.366041582042	-0.97017505017101	0
84.388924857634	-1.6376679127778	0
88.707656776152	-5.3817293129748	0
118.79998570673	-4.0356451478955	0
113.38412760778	-3.6696740061266	0
117.89862581965	-5.7379143241331	0
28.447686682428	-2.6072082047598	0
36.314361471701	-0.76516414890112	0
39.555261070617	-1.0103039987913	0
98.962183714861	-1.9238631265927	0
33.408363027623	-1.8549633760026	0
50.593465310225	-0.69321732094986	0
59.302540493118	-0.71679747616825	0
57.952691682919	-1.3657325514197	0
60.740108435594	-1.9612464871413	0
59.083749167075	-2.2004492853207	0
57.806329020147	-3.0440816549986	0
59.639497465407	-3.8934916463268	0
12.544531497431	-2.6692292842183	0
42.810631550052	-2.9318638580549	0
102.52613846933	-4.1119966566372	0
1.4757189765998	-4.6975162174834	0
19.464125276548	-5.300186202529	0
61.895231330246	-0.68903041493732	0
63.038108653283	-2.1940243576434	0
93.061181908096	-2.7087172908549	0
[...]
CELL_DATA 950
SCALARS Coverage double 1
LOOKUP_TABLE default
40.979171286225 9.1279650737946 18.502990277523 1.2505623734944 1.2505623734944 6.808485611927 5.7572563164639 6.8292860933488 30.806205806107 25.772946953257 0 4.2879394616682 2.5408058415968 7.2651309102596 6.0851514920817 1.25 21.609501846836 0.55474873604069 1.25 0 1.9275885637302 10.724325218324 21.45692095764 3.3717861838899 3.4299420512043 32.847473726731 1.6373908663932 3.6465009486362 29.938411036908 13.421986072364 1.25 5.8353448397292 1.2505623734944 0 26.817311058376 3.8119678344957 0 1.25 1.25 10.722749874976 26.620529207737 10.122067691966 1.25 21.845519655653 1.25 3.6791952274559 29.030030769055 25.349528313392 15.81202568959 13.340706554923 1.3124404748407 1.2509996003197 1.25 41.132799102311 1.3124404748407 24.709110292602 3.3955338648186 9.0641765437103 1.84642688273 1.2505623734944 16.269586514886 28.572010062404 1.2509996003197 6.2305863689601 12.998689641296 9.2298451739079 4.0362520888986 1.2505623734944 1.25 18.77657622455 23.852069126999 3.6764583184891 0 9.9109197614509 1.25 24.783119915467 5.0239420840305 10.173893732596 13.315866751218 20.391346604653 1.2700885795881 30.397608382864 15.387221890979 18.932696066656 0 18.590442684348 0 21.353263337835 19.13539752165 36.077757819971 7.0386033553253 1.250249975005 3.3494071870084 33.157676042015 29.025704519908 35.645244043535 1.25 1.2505623734944 5.169647486214 4.5739140529448 15.047080608692 30.179029174551 0 33.526478712082 16.048464244812 17.552934839586 1.2372370237984 6.87791971663 33.860500629013 0 0 1.4404408254322 24.315707537367 2.4317147092081 1.2505623734944 44.032390700027 53.404355766802 1.2505623734944 0.30853729768094 1.2505623734944 1.250249975005 0 27.796758032018 1.2505623734944 0 5.6029298293077 0 5.4011442314414 3.6519687835058 5.6913385348767 1.2505623734944 1.7844230351747 0 28.193508957257 7.8231306884164 2.147875235788 1.2505623734944 1.2505623734944 24.426066003972 8.9679563703802 0 1.2505623734944 0 1.2586691185109 1.2700885795881 1.2505623734944 0 29.03817432728 5.1802563741289 1.2505623734944 23.694411952882 1.1123134716379 1.2505623734944 0.30431121405044 1.2505623734944 1.2505623734944 0 4.4603164912482 19.360909447077 7.6932486878417 19.71602674108 10.037584997581 33.651898817106 15.540221921019 1.25 12.311211165792 25.250803528372 4.4003992286894 33.055942130438 0 0 1.2505623734944 1.2505623734944 1.2505623734944 1.2505623734944 1.25 1.25 2.137990179218 1.2505623734944 16.724525366839 0 2.8342433050044 0.87713649532992 25.232966135254 4.9953399904568 1.2505623734944 1.2505623734944 0 1.25 23.041988275052 1.2505623734944 21.884819007571 2.0037440612767 16.800074946503 3.8817301220183 8.62338694695 3.0825670633941 3.3800314990005 1.2505623734944 1.2505623734944 9.8201816684989 0 2.1787911659199 21.034760189372 1.2505623734944 12.932806842148 10.133084128504 5.8664871701728 8.4320688204863 8.4397769457521 6.9232428865069 22.850781059358 2.4043254512848 2.9973676090562 1.25 8.6019588235263 4.7346355277734 21.418518324311 1.5490781634522 0.59520519823347 17.242543596766 0 2.1705959653455 1.0612005680371 7.3717571345087 8.6969373956858 24.815328325953 14.974688120575 31.808995246726 27.680484369574 0 3.9218856857506 30.815695146159 42.313280121279 0 29.602983213892 10.066946246973 0 2.5312987225686 33.170784443868 6.7200910284868 21.780082366375 7.1654093700538 1.2307805605138 1.25 24.469973005784 5.1550339561517 8.593431620212 8.6119235855546 15.256356206701 0.37937921965512 0 1.4473288437455 16.777471652521 12.902124990113 3.6889970395716 3.737874042149 13.450629144807 4.963056403421 0 1.2505623734944 2.5030493441953 8.1321596237647 22.89202643025 14.807370784874 5.093359082501 9.6520633069946 18.558618843648 0 7.2563264266335 1.2505623734944 5.101616446037 12.911661877969 0 22.1101258391 6.508192020739 16.530607929674 11.230847999797 19.256983539622 1.4746777511197 17.0247760296 22.451282167852 20.678346757626 23.356997638575 5.0087449931451 8.9016738618114 0.59074732789146 0 3.5394251026394 2.2541155769847 32.969781712884 22.556154880477 2.7655064188334 1.2314668631935 1.8018969498174 12.138931402988 1.0052606258015 0 9.1622271586633 5.1325075026171 18.965129904815 19.166074059439 2.1437626019259 0.82772563163693 30.360251569713 0 20.001165767516 0 1.5515024060345 7.2455319345946 15.431735061941 4.1345375352195 0 32.47134113152 61.165639202811 5.0345826992458 16.279239765392 16.840571785476 9.6719124817974 2.1710910386015 13.43327566286 6.1541748377538 42.057911553018 17.889533351139 32.412807742602 0.80651058117211 28.243571890658 15.683828628441 17.36371081557 32.322533635001 11.035725559567 4.9544653745726 0 29.609949591068 11.584711559082 6.7920693919361 8.4353801291039 7.2985273333351 0 24.764169107474 17.845297381608 34.459261414864 30.193414932767 18.890823214275 6.3327115446531 3.9816121949402 14.91905447011 4.2907183802574 9.0908829449965 0.40420949156366 10.931616014522 0 17.693856855591 17.850817737107 1.5017658069797 11.108017532864 8.9582581747735 37.859844899839 4.5089061133614 0 7.669018886553 1.25 25.404697909025 7.1609688063468 2.3586300583569 31.469645064883 1.3099126931146 6.2715569975887 30.311809223812 7.7616193014728 19.537745592843 20.215404239764 0.68123115325452 14.403850215345 2.2955522392943 13.175047635452 31.655115570764 1.25 2.5780308101803 25.168705141283 17.059004148603 0 1.5899422143024 0 2.319314932408 1.3384866962062 6.8033581009874 4.0898392718065 10.462017955474 27.90184649142 8.1861467841906 9.0045745300945 0.32803350702363 23.644768321719 10.389835169585 6.3011771830882 6.4787915604508 25.599351772268 31.085237077571 28.516117841874 11.840691496478 4.8316877255 5.3783130877288 0 11.206564152768 4.0854581974831 13.393767832137 11.611112070422 17.383240393568 4.4666159092221 15.330609219542 0 23.571509169604 7.5902957340871 28.850051236698 26.842403593672 21.235488632748 9.4123505322453 5.3524986540048 22.733802521873 5.093100829281 9.6383433006637 3.3340611885486 9.7897225479572 9.6608391482697 20.126317898257 13.47227118496 2.9825444038425 28.160345049218 14.053887213447 27.336614915877 36.427107430695 27.214314016913 0 19.393960004858 13.647744496723 41.177437213971 22.26262286805 11.573236099362 4.0542563007299 9.9689797878807 13.704281177391 20.58042989645 27.023650569145 3.1803338199021 0 0 14.442277128983 2.7189677372729 0 12.138931402988 12.940118047797 13.216864398053 10.158335335048 1.7375057271879 6.7235185118145 11.852198418155 7.8305305086486 23.298812773508 1.1189729348737 2.1609340794674 1.7534599256066 20 13.579588205102 0 0 17.756842191596 8.8891097847223 0 17.784049136283 5.2870394333213 19.284089099353 23.907433650667 9.9974852466589 25.385209850853 8.4838269331389 10.113999567774 8.1855446149645 2.2292428107593 8.7060722592839 9.7260972823892 1.1173106644023 20.3125 20.411575958465 0 11.501579038983 0 10.172520434993 9.1921869728198 13.135507744469 0 25.119459670138 0.32791108666866 16.085340931393 30.156912776515 20.522570985269 14.746486511467 11.558106906165 7.9928551406289 14.016196858928 5.7941343468464 3.7614165439162 15.470511670392 73.283889901581 3.7181189149745 14.732673521462 6.4879860890822 14.943790800707 14.845027825703 18.43585391815 5.7460559363597 4.9087191555845 34.246625808356 29.688195391736 25.038875123079 28.262116375465 11.183901654591 35.70376168086 0 8.1648674291245 44.16168591781 4.7552492038411 18.642576640836 14.607424723525 33.612354592294 18.477629050967 38.523603125336 0.64074788431167 0 1.4613603643116 0 10.650614442381 0.52191864532463 1.2682075562975 7.724411537186 2.0536370013152 1.8643989984422 3.2589422160145 2.4098428534301 20.966617151676 2.332586822857 2.6909005256379 21.485425627703 1.650419035825 4.8444227829493 8.8165347768934 24.510441639542 25.180752028643 20.283749908546 8.0379439161346 23.177406711975 17.705457212807 24.161931304876 40.583107106236 0 0 14.69060541229 0 35.743524348177 0 4.4307684362878 45.947663751184 46.550509096311 1.4245108436383 54.475459269667 12.045248722477 8.7078048179618 23.647468498255 30.563424797297 7.5981799924948 14.658825129662 8.8891529316431 4.4366138941957 4.4830521430687 4.4169404529994 24.976833700209 23.048430372666 6.9293910687683 4.5769779070745 11.895843697681 8.432900501932 27.604547844946 20.535976547013 105.68929215281 2.687206617703 4.4824343513031 16.013684060277 39.12025630466 15.551970468824 34.417604063948 0 7.2627126087537 4.5816189226391 78.365971365619 12.859213891395 19.308779900556 16.802700911858 53.864968697947 0 18.811679475636 22.278204279212 30.252878202124 2.6686602307727 21.850775963104 11.62217883703 5.1579529508642 17.359592377297 51.882933118354 0 31.323515112081 1.3323378541733 1.0775978999983 11.813773730369 26.82399717025 8.0695374386932 21.871576723131 5.0450391125764 0 36.901970781167 0 46.489712889996 24.251417693161 21.705763510143 52.873045689037 5.3567142982086 6.4536639689826 10.153963719756 0 63.312743084258 3.7972864230481 20.650943405424 14.885509276241 21.186298261829 13.066334542998 10.987300381094 5.4367450656213 15.761451657151 29.196958814377 24.235084918032 11.53046658405 0 15.855310102236 6.8688938570292 43.2276555161 31.006644355863 40.424654326832 26.777389387016 13.474952584267 8.7901361677351 10.684236430514 2.207779008711 0 12.447780593066 2.5739789075801 19.393900918985 0 6.5999089075255 0 26.495388669908 14.630278312021 95.910023822975 11.138362256278 24.510178830318 0 36.870630913538 11.025077847731 13.645605169384 4.265861835252 6.3386879798536 8.0976538255362 0 31.924353154725 0 17.303089606971 3.169582021055 28.605317436556 3.1850904944259 2.5833956380393 1.275867792748 0 1.0129701827016 0 2.3578071711258 0 20.25443362547 2.7185892623546 0.7536032872515 253.14923474432 22.113457964655 0.52417044102047 0 25.164779630196 29.437826049615 0 95.241932679361 62.639612084933 50.130649448855 39.114110395761 2.3565478582984 22.63984629527 0 18.876871493642 42.354909092951 7.5262710421712 18.44738879202 1.1235764421946 12.275318467796 15.856134798606 23.519810135556 17.137028513963 1.642937952843 21.348673138485 118.31619267553 27.251142992311 31.471172501023 3.4591740571125 6.747876215344 5.7479235347963 38.921589101376 5.55627305865 42.921607819794 0.58913696457433 14.513776505183 15.150317776385 12.168805055643 9.8747316098007 17.351720915646 12.817713247043 0 0 5.513906581066 60.37376681167 10.19785042812 100.97990520052 15.585847160436 16.385461246954 51.796239999791 13.110259245713 123.22575325174 48.538524899992 0 26.346766934342 17.761151250064 29.008657263155 41.723635662737 16.93103276752 32.956828888229 20.889042901321 10.402683323138 44.543293761757 23.189342657263 23.155659355298 3.8822710166353 51.758515227716 98.16004674127 16.546281223459 59.421572924347 1.640894487516 50.991125307489 5.4034037019844 45.476412838985 33.910506208472 76.1788209315 37.805175888724 248.49842681666 15.867864172418 5.7069830558851 0 39.050751526786 8.194248796375 33.138201377589 56.167671994119 19.453086118071 4.9795660922898 0 0 0 3.8221262036258 110.52810198109 33.48118336716 51.179891517927 8.176386854127 20.669528150214 75.460540577187 25.621535148012 112.20829508105 1.4192999786025 42.558585324481 28.581591920739 40.11423185408 37.366790968544 24.452853195974 15.523432475248 44.644156963138 156.95261958593 208.5942656578 23.847700022477 27.588280724973 54.041055633909 23.734533128126 53.069152748148 0 57.987610442121 123.06728540663 76.231324220077 63.118535076593 59.782354631659 104.14023444692 24.88725926531 105.84212218757 28.592521637409 189.52753113882 37.792606791477 89.879000547887 38.392404608022 85.669925886606 58.51664046867 0 78.190087226688 76.910266608792 0 45.409127919453 39.125090556106 79.769527690889 26.094357308686 35.830952945827 349.02338698834 72.176526980803 164.6672326547 31.423660163729 99.989578949506 59.133325011273 0 95.578802298444 0 0 0 0 108.08670615447 0 0 0 126.33239935023 0 15.192131293722 172.23997260207 412.8765095011 115.05522173653 40.569117530069 94.84909425109 171.88215955994 85.702878414454 158.31264793348 36.646974115531 28.220474264994 62.602686144398 143.10975711987 78.155605765766 79.814516286142 270.84198210457 56.622443153861 0 0 194.46668916365 127.16406776857 73.319942414212 186.97359399162 110.09537976415 38.463781372829 46.777826399247 79.640169519271 76.784183120178 127.97262312764 0 39.618329949961 72.193275184131 593.48212503994 135.67828394227 143.59643874008 0 0 70.176218340519 186.86045095519 51.946123510309 372.66580627011 0 331.27575562499 59.324721707865 90.217364146821 0 207.46948477308 152.8144433772 54.547762844099 156.29467795873 261.08033982856 119.64998208563 160.70125464526 609.30022404817 0 282.28811744102 432.31775220789 0 117.54702689763 252.73550729355 0 535.14265277867 299.03984590292 410.18027781607 367.82138613044 0 0 1290.2617976508 497.86220917079 154.73950111475 291.34741826697 286.12765427461 376.64921289448 463.46026795893 221.25491661204 990.88550145829 0 129.82315279071 0 378.368835219 49.418023387608 0 0 0 0 202.46001000252 378.37878692246 0 0 309.67899236432 173.6384668576 0 0 0 0 0 0 450.00103973905 120.00266663704 124.44862069337 75.001666648149 135.80802693172 0 0 296.67549799741 260.65289017371 
SCALARS S_Coverage double 1
LOOKUP_TABLE default
1 1 1 1 1 1 1 1 1 1 1 1 1 1 1 1 1 1 1 1 1 1 1 1 1 1 1 1 1 1 1 1 1 1 1 1 1 1 1 1 1 1 1 1 1 1 1 1 1 1 1 1 1 1 1 1 1 1 1 1 1 1 1 1 1 1 1 1 1 1 1 1 1 1 1 1 1 1 1 1 1 1 1 1 1 1 1 1 1 1 1 1 1 1 1 1 1 1 1 1 1 1 1 1 1 1 1 1 1 1 1 1 1 1 1 1 1 1 1 1 1 1 1 1 1 1 1 1 1 1 1 1 1 1 1 1 1 1 1 1 1 1 1 1 1 1 1 1 1 1 1 1 1 1 1 1 1 1 1 1 1 1 1 1 1 1 1 1 1 1 1 1 1 1 1 1 1 1 1 1 1 1 1 1 1 1 1 1 1 1 1 1 1 1 1 1 1 1 1 1 1 1 1 1 1 1 1 1 1 1 1 1 1 1 1 1 1 1 1 1 1 1 1 1 1 1 1 1 1 1 1 1 1 1 1 1 1 1 1 1 1 1 1 1 1 1 1 1 1 1 1 1 1 1 1 1 1 1 1 1 1 1 1 1 1 1 1 1 1 1 1 1 1 1 1 1 1 1 1 1 1 1 1 1 1 1 1 1 1 1 1 1 1 1 1 1 1 1 1 1 1 1 1 1 1 0 1 1 1 1 1 1 1 1 1 1 1 1 1 1 1 1 1 1 1 1 1 1 1 1 1 1 1 1 1 1 1 1 1 1 1 1 1 1 1 1 1 1 1 1 1 1 1 1 1 1 1 1 1 1 1 1 1 1 1 1 1 1 1 1 1 1 1 1 1 1 1 1 1 1 1 1 1 1 1 1 1 1 1 1 1 1 1 1 1 1 1 1 1 1 1 1 1 1 1 1 1 1 1 1 1 1 1 1 1 1 1 1 1 1 1 1 1 1 1 1 1 1 1 1 1 1 1 1 1 1 1 1 1 1 1 1 1 1 1 1 1 1 1 1 1 1 1 1 1 1 1 1 1 1 1 1 1 1 1 1 1 1 1 1 1 1 1 1 1 1 1 1 1 1 1 1 1 1 1 1 1 1 1 1 1 1 1 1 1 1 1 1 1 1 1 1 1 1 1 1 1 1 1 1 1 1 1 1 1 1 1 1 1 1 1 1 1 1 1 1 1 1 1 1 1 1 1 1 1 1 1 1 1 1 1 1 1 1 1 1 1 1 1 1 1 1 1 1 1 1 1 1 1 1 1 1 1 1 1 1 1 1 1 1 1 1 1 1 1 1 1 1 1 1 1 1 1 1 1 1 1 1 1 1 1 1 1 1 1 1 1 1 1 1 1 1 1 1 1 1 1 1 1 1 1 1 1 1 1 1 1 1 1 1 1 1 1 1 1 1 1 1 1 1 1 1 1 1 1 1 1 1 1 1 1 1 1 1 1 1 1 1 1 1 1 1 1 1 1 1 1 1 1 1 1 1 1 1 1 1 1 1 1 1 1 1 1 1 1 1 1 1 1 0 1 1 1 0 1 1 1 1 1 1 1 1 1 0 1 1 1 1 1 1 1 1 1 1 1 1 1 1 1 1 1 1 1 1 1 1 1 1 1 1 1 1 1 1 1 1 1 1 1 1 1 1 1 1 1 1 1 1 1 1 1 1 1 1 1 1 1 1 1 1 1 1 1 1 1 1 1 1 1 1 1 1 1 1 1 1 1 1 1 1 1 1 1 1 1 0 0 1 1 1 1 1 1 1 1 1 1 1 1 1 1 1 1 1 1 1 1 1 1 1 1 0 1 1 1 1 1 1 1 1 1 1 1 1 1 1 1 0 1 1 1 1 1 1 1 1 1 1 1 1 1 1 0 1 0 0 1 0 1 1 1 0 1 0 1 1 1 1 1 1 1 1 1 1 1 1 1 1 1 1 1 0 0 1 1 1 1 1 1 1 1 1 1 0 1 1 1 1 1 0 0 1 1 1 1 0 1 1 1 1 1 1 1 1 1 1 1 1 0 1 1 1 1 1 1 1 1 1 1 1 0 1 1 1 1 1 1 1 1 1 1 1 1 1 1 0 0 1 0 1 1 0 0 1 1 0 0 0 0 0 1 1 1 1 1 1 1 1 1 1 
SCALARS Velocity double 1
LOOKUP_TABLE default