# vtk DataFile Version 3.0
d-2__ created by libgimli-v1.0.12
ASCII
DATASET UNSTRUCTURED_GRID
POINTS 638 double
0	0	0
0	-24.166666666667	0
120	-24.166666666667	0
120	0	0
1.25	0	0
2.5	0	0
3.75	0	0
5	0	0
6.25	0	0
7.5	0	0
8.75	0	0
10	0	0
11.25	0	0
12.5	0	0
13.75	0	0
15	0	0
16.25	0	0
17.5	0	0
18.75	0	0
20	0	0
21.25	0	0
22.5	0	0
23.75	0	0
25	0	0
26.25	0	0
27.5	0	0
28.75	0	0
30	0	0
31.25	0	0
32.5	0	0
33.75	0	0
35	0	0
36.25	0	0
37.5	0	0
38.75	0	0
40	0	0
41.25	0	0
42.5	0	0
43.75	0	0
45	0	0
46.25	0	0
47.5	0	0
48.75	0	0
50	0	0
51.25	0	0
52.5	0	0
53.75	0	0
55	0	0
56.25	0	0
57.5	0	0
58.75	0	0
60	0	0
61.25	0	0
62.5	0	0
63.75	0	0
65	0	0
66.25	0	0
67.5	0	0
68.75	0	0
70	0	0
71.25	0	0
72.5	0	0
73.75	0	0
75	0	0
76.25	0	0
77.5	0	0
78.75	0	0
80	0	0
81.25	0	0
82.5	0	0
83.75	0	0
85	0	0
86.25	0	0
87.5	0	0
88.75	0	0
90	0	0
91.25	0	0
92.5	0	0
93.75	0	0
95	0	0
96.25	0	0
97.5	0	0
98.75	0	0
100	0	0
101.25	0	0
102.5	0	0
103.75	0	0
105	0	0
106.25	0	0
107.5	0	0
108.75	0	0
110	0	0
111.25	0	0
112.5	0	0
113.75	0	0
115	0	0
116.25	0	0
117.5	0	0
118.75	0	0
60	-24.166666666667	0
0	-16	0
59.472529164768	-1.3706480058704	0
55.378699103925	-3.7946411791476	0
105.64787830187	-4.5541421813029	0
42.925313211897	-1.8300547896773	0
50.461578843559	-1.4093652686898	0
68.114417115732	-1.4579781852965	0
77.035648714665	-1.6795536387016	0
9.9721746543147	-3.2763848643158	0
104.80206773682	-2.0073355809767	0
106.92619599451	-1.1905382570702	0
120	-12.083333333334	0
6.9455787390493	-1.326902453826	0
14.319738217402	-1.4324863901511	0
0	-8	0
58.06474155491	-1.4049307157721	0
62.934309258048	-1.459140351739	0
60.761198302789	-1.163982254256	0
42.771372705242	-5.3474641083809	0
20.64586093204	-1.2372369563509	0
81.797848215186	-1.186732624003	0
104.24448667462	-4.7191119217753	0
100.40239364644	-3.0030965983581	0
114.14441700037	-2.1353564145332	0
46.993891867695	-1.6832582540377	0
44.504319376229	-1.280332933589	0
41.696300605325	-1.0536500793694	0
54.371389154283	-1.6982307914187	0
51.918336226535	-1.1693785169947	0
49.274668567788	-0.92363632974702	0
66.892131681198	-1.0326713383807	0
71.696730328195	-1.5680934384043	0
69.48646801902	-1.1689659037707	0
75.684022056967	-1.1145390375496	0
110.12597146456	-3.4765198726726	0
90	-24.166666666667	0
78.550501695825	-1.2118867998265	0
7.8075985740574	-2.4779713151513	0
3.4995080031071	-2.0538912343849	0
102.05619983317	-1.7519309775968	0
99.387796318647	-1.3597849516332	0
107.72463652779	-2.3671722918126	0
110.49500843354	-1.5556238975562	0
108.21345137255	-1.1206565982332	0
105.62840114178	-1.1001029220523	0
5.5633945587644	-1.3371975860634	0
10.610109158774	-1.5879660196591	0
8.2428062494834	-1.1622702708887	0
12.965475008999	-1.1473588552153	0
16.883800674923	-1.4914696389987	0
15.593937984043	-1.067045011385	0
0	-4	0
56.724494326007	-1.2058293093502	0
64.410314995152	-1.4063005147712	0
61.37208552545	-3.4755386822914	0
61.817743955489	-0.95063167817071	0
47.692325780731	-3.5397058246627	0
19.317352096465	-1.2198677416913	0
39.316489025661	-1.2461869525395	0
44.339308071167	-5.0498218761953	0
9.3991047770597	-4.4141220925159	0
115.54015840781	-0.88738360167543	0
44.929067428018	-3.6238395728867	0
45.637349901159	-1.0455714684291	0
40.576994382777	-1.1397602956552	0
52.01362693193	-3.7211418946383	0
53.055668467303	-1.0210661665203	0
48.280296547222	-0.96921738251405	0
49.098612630207	-3.9564597827106	0
65.76612160576	-1.3073733386376	0
73.222060291931	-1.4446084762263	0
69.718526566378	-3.665132373489	0
70.552447730749	-0.98800947085371	0
74.557228896534	-1.3231279178452	0
6.7244099801184	-4.8170179643112	0
112.99164502562	-2.4546246785691	0
80.563419585322	-0.99144509997148	0
114.50559790191	-1.0228769993698	0
116.66883630964	-1.4550042194123	0
108.14509991472	-4.7475955693817	0
103.55815878495	-1.2489217593578	0
13.233750556185	-2.3124539894597	0
100.61956995562	-1.2236591954884	0
107.2938653611	-3.6410372890033	0
112.03778262954	-1.346369510429	0
108.60018854197	-3.4893720923915	0
109.30658653618	-0.97254524173213	0
104.54756421457	-0.87205409185847	0
120	-8	0
4.2523307176416	-1.1643696681244	0
8.6808047452243	-3.4854775096848	0
9.342780528556	-0.98558419652873	0
11.884148162745	-0.97805212888379	0
12.612425561769	-3.7357880176156	0
15.507806436107	-2.4097679907557	0
0	-2	0
55.635994455894	-0.99950896175401	0
57.064645347707	-2.7253057603	0
61.649786273831	-2.1097830056778	0
106.24894571119	-2.5085718807663	0
50.466964443215	-5.4148097335979	0
11.218399358667	-3.1159196981537	0
18.166386236347	-1.0535505595907	0
109.23950613748	-4.4797844266195	0
118.48641131071	-1.4397467868245	0
91.904981838398	-1.3915335534837	0
63.73486313674	-4.1522731155843	0
45.435229912483	-2.2637548612179	0
105.14396383478	-3.4119981503548	0
52.740223544058	-2.2326022019361	0
48.886060138027	-2.2380558686447	0
65.209287334117	-2.9944792078502	0
70.322480619267	-2.1890034848018	0
74.107313600674	-2.805410282662	0
3.1503170708324	-3.4951818844744	0
13.958746067133	-4.5375680860781	0
7.5531352782342	-3.714498947009	0
8.2383696678704	-4.7988272079351	0
120	-2	0
2.3992609365605	-1.9890795072286	0
106.23100627769	-3.7996079022463	0
106.82590519542	-4.8471318811926	0
1.1881506241098	-1.478048024307	0
113.3210421446	-1.161558232521	0
109.07734296991	-2.1659453584978	0
103.69523666792	-2.8448422873446	0
120	-4	0
3.0804736796269	-1.0185324788942	0
4.6242075197455	-2.5560360306238	0
9.1095412202324	-2.1641854352409	0
12.088163745601	-2.1471479440834	0
55.834915671762	-2.0857445034682	0
60.393102087368	-2.5122328236299	0
58.885358831354	-3.0983043918186	0
60.232281884089	-3.8096019056759	0
59.473919540183	-5.0773281628471	0
61.043426417308	-4.820049097988	0
62.630473953389	-3.0484487233268	0
120	-1	0
30	-24.166666666667	0
98.038117832701	-1.2269109795444	0
7.7678428530133	-6.6776271875023	0
44.266633432712	-2.5396162803593	0
79.533358188491	-0.81861796200191	0
43.525575771791	-3.6938967221262	0
62.025311586672	-5.5868632626031	0
107.83525644785	-6.387193088009	0
46.270717002913	-3.4071209266579	0
41.903437844196	-3.760972676452	0
51.506982488973	-2.3437950207736	0
50.405264469212	-3.1810614153072	0
53.579262762638	-3.4304422795404	0
66.814684406265	-2.3649625990503	0
69.163477584342	-2.3470014805627	0
68.157419001298	-3.226752089872	0
66.714684720374	-4.118850620033	0
71.297649397108	-3.3650213238376	0
75.570709467855	-2.5558747618716	0
14.157105916357	-3.0774678081609	0
2.0834370438411	-0.89761805960616	0
6.3124415160133	-2.9379850425264	0
1.3986336066406	-2.9721587871597	0
0	-1	0
60.840336505302	-6.4533006105211	0
62.302267752778	-4.4104034496559	0
21.93612259582	-1.1732419274039	0
38.011530353233	-1.2478421908767	0
18.379471714982	-2.5601619025292	0
31.804856329681	-1.350177057225	0
41.209798473182	-2.2867283624584	0
45.710738355697	-4.7778863630084	0
48.052890811949	-5.3943673648086	0
85.609794516948	-1.4949451844684	0
83.1442863095	-1.240508671214	0
96.799330773129	-1.0966976127483	0
98.504939506759	-2.6829497089126	0
78.672228726464	-2.8709578841174	0
94.50512958771	-1.4677120425761	0
93.158865606651	-1.0639573080655	0
90.545668258868	-1.1219802961615	0
114.88453960614	-3.8793988103322	0
115.2890230888	-1.918435446005	0
109.08846819223	-5.4954250766156	0
111.56550011269	-4.5003156755484	0
105.80720449968	-5.9040935299654	0
9.2923297566829	-5.6115986660186	0
10.792929225859	-4.8008778400434	0
25.512080703469	-1.4516680465305	0
23.17748020269	-1.1146737697536	0
36.740411753803	-1.1277508367887	0
38.55858887087	-2.8257159709388	0
19.963188066501	-2.4749052155199	0
34.373465024292	-1.502657069734	0
33.069143843635	-1.0535020258261	0
30.480591059545	-1.092860460471	0
46.857736896143	-4.5500129228924	0
45.298405928442	-6.3970656697184	0
88.293777879723	-1.4346222722827	0
86.936474316644	-1.0942163815305	0
84.331898503612	-1.0269865807225	0
95.713945252715	-0.95157964803246	0
97.272064456946	-2.1942779401446	0
82.322870652575	-2.8161391820663	0
79.79689049384	-1.8794932897172	0
93.131038686535	-2.4466574168714	0
89.46532855317	-0.94026282330313	0
114.85489307938	-2.869668591759	0
113.93657045792	-3.2660406393902	0
116.03166739713	-3.0870985993847	0
112.8538296607	-3.8436450680357	0
111.67780943166	-2.8660727409685	0
113.05923065928	-5.5422976866314	0
113.89971969664	-4.340649266308	0
110.2408307093	-5.1185192892137	0
28.203339817813	-1.4268200537549	0
26.859362463913	-1.0857332956716	0
24.281130066023	-0.99193778973823	0
35.642684275309	-0.97913430956838	0
40.162940873079	-3.6784046324982	0
37.176209352197	-2.2620059088364	0
20.453843434562	-4.5997308006377	0
21.417143969135	-2.5553225987311	0
32.908633446102	-2.398796960446	0
29.411856510033	-0.92441033066229	0
46.560183985814	-5.6257313567011	0
43.765972209138	-6.4314048788834	0
90.565220013682	-3.7193986442124	0
87.027225861499	-2.5272422025714	0
96.009365670861	-2.1806730562819	0
84.150934060448	-2.3871093163584	0
80.989781971535	-2.0418611192246	0
114.52081390931	-6.6385483964015	0
109.98260595978	-6.6770681962454	0
111.44258577347	-6.0162808995243	0
30.388819720269	-3.5691264918263	0
26.831431849164	-2.5339839862874	0
23.970171245026	-2.3828450873823	0
39.966640073894	-2.2366231856573	0
35.839505278097	-2.2531571449606	0
22.636174742878	-2.1221884032273	0
48.815562832295	-7.6514242878637	0
42.249646806536	-7.3966653978494	0
89.73778461397	-2.1317603028231	0
96.989886040453	-3.757687438766	0
83.9184206147	-4.3283498769245	0
80.455503753737	-3.3196242114437	0
114.76619327795	-5.1255742563396	0
29.620025778768	-2.0857917664864	0
36.708959642918	-3.8284892623136	0
22.688421890188	-3.3776457073416	0
46.879568405431	-6.9986015645442	0
44.156974953892	-7.9342813338819	0
88.635423304314	-3.3040166902732	0
90.91682117867	-2.2412789687534	0
92.613440428673	-4.3042782146934	0
91.826898988777	-2.8226506650863	0
116.39595801658	-5.8616239106922	0
115.83525574507	-4.4359129957654	0
28.442854533788	-3.3041150805895	0
30.784037553067	-2.1623366340147	0
32.190820868883	-3.9586029661147	0
31.616436186884	-2.690263199429	0
21.510950647338	-4.0123197460409	0
46.889916332219	-8.9796316032065	0
[...]
CELL_DATA 1135
SCALARS Coverage double 1
LOOKUP_TABLE default
8.2258431821311 3.9672182902445 10.719775041339 13.156869704599 7.2159203173187 0 19.731183415258 7.1113239394207 0.80505226779678 12.386724472648 0.65522115331576 10.439660389137 1.1260748341501 3.7876256484077 7.1334288570904 1.8760956827424 0 4.6806050391382 5.3904109879441 3.9976758682298 11.917625565806 5 26.261494933273 3.75 3.75 0.35053992105795 29.578645741077 7.9435878859607 0 9.7436020067044 0 1.9998762302002 9.4675708203217 7.6188175258383 0.33978493535557 0 1.8808545732401 14.816720658266 5.5430042729768 3.4019855192229 17.442530290707 8.629280105597 3.5354332688273 1.1121603610911 2.718047784949 1.0378215915527 8.8947578379513 16.086090920508 10.614670627513 8.9658383442359 22.170666778635 1.8491601319308 62.562456160723 1.8301818887058 1.7239567758207 0 20.126620383504 4.7177704682287 9.2491039318529 9.9414877603967 31.605336655304 17.802287266271 15.336002040478 13.407323129731 11.866186312871 4.7157128950443 3.1764356460867 0 24.996644983764 20.731613224466 13.782027875443 1.9483196702108 2.5 6.4118441101098 5.8252704876249 14.491796917771 11.744854477479 9.1717285675442 18.156136104428 7.4818300584627 1.3468925078501 4.7821840257807 12.125006849921 2.5 6.9849355218602 3.9229856368267 0 17.347993286606 3.6044005322097 5.4243139734577 3.5359407019037 2.5437767310912 16.055581524364 5.2518448648007 5.9375 9.0409528308005 14.164572601418 36.460729861972 4.8780177801346 6.1215484714363 5.0199953446571 9.5446356315325 12.556440770792 6.9662628354632 3.7725505975128 7.4013307919608 2.3442231345255 21.937494409514 3.3644933636571 1.25 7.0495184840824 14.185417849882 3.356146573352 16.231429242195 3.6052201770751 13.459769393468 11.382419227154 0.33873883788097 5.2749195959351 8.0973835038247 8.6657426463213 12.239353611886 5.9518689288716 4.4408603198319 4.3603793742811 5.721161057981 21.203224787676 12.15638080361 9.3734932469444 12.872290343023 0 0 2.964357387959 8.0930133395435 11.973748318908 0.60332711001818 2.9221482657581 4.1131885527494 5.3700416561807 6.4326080974803 4.8044885188786 9.3080232029848 0 6.5969899840737 0 4.8256891654872 2.6037781785339 2.8949477906785 0 7.0303922468572 6.5098842265075 2.434563242867 2.4304790433699 0 8.575916451298 11.797961443653 12.771077786544 12.581336894964 1.5188876434571 3.0395677930373 8.9801145719415 4.8055351954582 17.803782159434 5.3874821872009 10.369426489855 13.63625541774 1.5059675501694 11.534029506982 7.4427807780784 4.8888628918532 4.9490536015303 4.7607548525892 1.8442540275088 0 3.7212581799032 12.648242891803 17.804248220785 2.6163406330161 8.9757810593582 11.937679268011 5.8555479627512 0 17.466544471285 11.563758152807 3.75 9.4511688680201 10.3160892977 3.0224471435513 14.097524087497 5.770955486475 21.685897443066 5.2057164286396 2.6678552186033 2.0887011694155 11.494828299221 6.25 5.765154343695 6.9303505989872 0 1.5192741618996 2.012173010752 6.9422552987462 32.370730813122 0 9.9004988548778 4.6804681779737 7.0928555191235 5.4081468947518 1.25 8.0830117636845 1.8488613715071 1.3803378919504 18.916220770798 0 10.359039474176 5.8340674957727 9.2958423340693 1.5012421436402 10.842296628577 17.675838363453 0 0 2.5514910521601 4.3703929884138 10.128193341811 1.2948832047359 5.4480681535347 7.9783826384666 7.0307937433804 9.8326094558584 9.1115997044522 18.07980168532 13.009932235302 11.507221694612 2.8577752748547 8.9680255842725 8.4954191895132 0 13.898499313332 9.8215698761451 13.204565465877 8.0973230322411 5.4586067953708 2.3698903147662 0 2.6458890262607 7.4553487409238 3.6150478217908 13.071247090864 23.65520375447 8.0418264296138 6.5827965269984 10.94212352306 2.2412518702865 2.7759628947795 7.2149160025646 1.5936100481144 1.989103060126 2.5891043433541 3.9413175653895 4.2174310946543 2.0634985206631 0.33449887674519 3.75 3.780322072842 5.1864763663184 12.723735171738 8.8308165566622 6.6712014927038 2.5036785759329 0 11.612184571788 8.2662780477118 0 7.6385784771695 11.596035386459 3.7433396350234 9.6082908525791 3.9034303464172 0 2.0874600386711 1.0586157300834 3.1061265572521 0 0.2952242159889 3.0917926783491 0.34652504212699 8.8949024901501 3.9981304756538 5.5990099786727 3.9230893575406 3.9028259334125 1.4304057055661 7.3412389208465 10.999383842033 14.424628225328 7.1570737369291 21.17805848232 24.442458165301 2.0984180341107 7.5547486931649 1.3108977551072 2.9382149729958 19.148305723239 4.6566662820489 0.6745165558851 19.325999508327 6.0411190132961 0.7080474274154 7.2421036221667 2.2190727127379 10.838138567211 8.8108286537768 5.9003183164655 12.598837139418 9.9789835080533 1.1192445805417 16.940412446757 0 2.2147401521776 3.0624394255143 2.2404392992497 0 15.846467326081 3.4613348125536 0 7.862025538057 0 0 0 0 2.8018850702264 0 4.1891753056834 1.1520993024555 11.969688097446 6.998341413918 0 0 13.82056993742 3.6167136891686 13.560974722071 2.1102258180564 2.986510922699 15.152752733965 1.25 4.3066760946616 0 0 0 18.413407557196 3.5188101785559 13.897140930035 14.424552009729 25.551495528913 0 23.016838614286 0 0 11.399980491186 0 3.1876985128453 0 51.838280569568 3.276984818707 21.609859089146 3.024667871635 0 0 0 13.534453559641 8.8836285978183 7.3627905654043 9.1637704980221 0 5.0933878062723 3.6820649715007 0 3.6696339902905 4.1823268499539 9.7161917869017 3.0121118180571 4.0370743220365 2.9535432668256 2.0722345826103 2.676510894319 8.0999484234955 0.73398212417976 12.239860869664 22.316305956252 6.6221796322243 5.4508042971652 5.0898576228331 47.538843602682 0 10.97675735618 4.6706691691806 0.79245281292321 1.5949034434746 11.431402304408 10.463203464338 6.1049034558546 2.6407992293315 13.927878973333 4.0023824248793 3.0364676805095 1.0950397755075 4.5768889101324 0 0 0 0.79441245759406 0 0 0 0 8.5954962807481 6.4199055231288 4.5437821394243 11.098238154686 5.9250745216307 3.6038100346297 4.1699644667507 6.4755299776215 15.191355550771 12.449720460088 11.483723755993 0.65522115331576 2.5059733820989 0 0 13.356908366411 1.1336484013497 7.1934802282116 11.081613623044 1.8024163029508 3.1454330551499 4.3557953321695 14.486550617912 9.4164263211374 3.2184037237564 2.8605983018011 1.1167866525732 2.0782593242026 12.769387326478 5.6636479349617 1.4960681993287 3.1596751209375 2.2886165907174 1.3070203246891 0 0.36150806621712 0 1.2627066853434 0 6.7015012733808 0 5.2326810344671 4.860744842151 1.9070370458867 23.747844213886 6.411258713907 4.7491990343101 15.857067001914 14.624515967538 3.3572437508104 7.3930466150105 1.2839437418384 7.1403669244697 6.2136229818854 7.6903988776609 2.5050263565348 7.5013560802339 18.029655678636 6.1283682909051 8.1144627255819 0 10.453576685454 9.0652860968273 24.038300841652 3.4235716971948 10.746681999135 8.7628885722118 2.426165923414 2.2568199606884 11.150107357039 5.2395658698197 5.6972605259724 1.8558290168395 4.5603981838016 6.8275990095234 15.402345324124 1.2038909375921 1.2565976811809 1.7489445152355 8.9395830386546 0.31789564377051 21.255463642213 0 2.6504946604383 1.2516914758741 1.5753997317613 2.541000958886 0 1.2125105896283 1.4460322648703 1.5617549782554 4.8631308437643 3.3117700304216 3.0620108827394 1.4959834545046 7.8999216649854 0.76905621745029 1.6548522928044 0.88146801529357 2.8864455404043 0 32.283404916553 5.2119722302946 9.1029074019096 10.457162149081 2.7833249929155 4.494830990145 3.1355485454111 2.6256192552571 4.9095337169015 5.9125671852206 9.5533049663845 0 1.0260048950441 12.0942814687 13.415907110076 2.0883582885997 11.625860865249 2.369581463308 14.114885062767 1.5537048381305 3.5949801646466 1.3993388198733 4.1622450688871 5.4223570999432 12.338869689159 9.868718484944 9.2369476252098 5.7081265369093 10.071884388631 1.1336484013497 0.39589680614303 0 0 5.9439088037095 31.230258522733 2.8927152817209 1.6025544945113 0.88146801529357 3.0810993741848 0 5.4820934718673 3.1926997459334 1.0228748413553 1.6190172139116 5.6588106635424 11.348153160067 7.6290600161972 2.5130879864085 3.6706768403641 5.9727819575932 51.077885752594 11.168312705949 7.3655722929996 5.8273098659598 7.3862503368588 8.9541169105916 4.2975992729218 2.2020379329714 19.055321006093 7.7027512078517 14.213820379795 5.2628855527403 2.8387396526015 20.893567727146 2.0495728095947 5.0916436103657 8.0588300372683 2.118583508689 2.91661280125 2.2992276185773 11.521510391547 13.714544632314 24.819933327295 8.8486695576238 6.3321040610778 2.8328915827613 1.4701539199458 3.1012528949234 4.7883309271293 7.5842491814995 1.7668135209805 1.9972968476987 3.1643027042493 2.2084731757628 3.3271947449021 0 5.2454978419962 6.1893313990328 21.312425064325 8.2314487837639 16.661430680561 12.247938029438 1.9452087140899 2.1832138892957 1.7610921323922 0 36.149255282063 4.480623396838 5.7706377809395 11.109217491144 17.913188723461 2.4874251898277 4.1130671279381 0.91912118545381 3.6893452516882 0 1.2784736875174 2.6950524511395 5.3439138155895 0 6.1106996306948 3.8595341283583 0 3.6352780767244 12.289786894301 2.9490449366368 1.2619273857864 11.261352936683 11.337893452495 53.312481058393 2.314980035749 0 5.2972509921617 0.89565510557033 19.40938368936 22.403528826619 0 0 1.5167741546648 0 0.89880727688201 9.9462976547776 6.1199872258282 0 3.9608674610021 1.3053631290237 9.8749811379766 0 1.730906290158 1.3213901537393 5.2333215796 2.1716774323768 10.923192372973 2.8147740729249 6.6915967633822 0.53450149268449 0.63096369289287 2.5526216623199 32.788327609437 2.4470146183048 2.8147740729249 3.9458434915062 0 0 0 23.264645211887 0 17.682438259429 1.2605948892691 4.2402916898526 3.7250235623568 3.4278871907381 0 18.424233926925 4.0396006397755 0 25.381171404235 8.8199746481983 9.9295343459048 9.5909989609275 12.299100836936 10.559015655346 3.845639472982 4.5517978569013 0 0 3.6321926879729 3.9981304756538 31.175327737477 0 19.69712271697 14.037189196698 32.065956165851 3.8428624457547 1.5382557891924 0 7.5290634658132 0 9.1858162953523 8.7446951557078 6.8124447416149 3.3714607461962 13.870629866797 17.94914154458 12.588673167348 2.5127821212698 29.835330212539 9.2432896663357 12.571214209766 12.638122900417 1.6263059414102 1.1082578146726 14.346048929784 10.923356661526 3.8076491771171 0 0 0 0 0 0 29.146978816175 21.516250610274 4.964486219868 1.7180567073299 7.4573973923209 3.588374074894 3.3300987576884 20.295222755978 7.7062196180586 6.1964639610622 6.5749908798917 18.080555933619 9.9150605067869 8.4367928840617 1.31521987541 0 47.631297809652 18.235730073694 46.427764148337 4.7176168391058 11.277651691651 13.56321167533 8.5196226154609 23.383846385047 0 0 0 0 5.1526480368152 3.2613043292715 17.999432451945 4.4986714102565 5.3374855107763 0 1.6722722579798 0 0 0 0 0 1.7896506222344 7.8702999517801 0 18.39626728164 8.5728334069339 3.4179589760527 13.099027155132 2.0755431355055 4.3541609192034 13.908308172977 0 14.012877282737 84.689630732879 3.1040774118511 6.0736288061184 7.95317922716 33.160699353345 0 0 14.54611781669 4.3815064074272 35.189102163054 13.798083868054 15.385927248363 27.996145597052 5.6050865221272 7.4414188082322 20.59748617539 16.888745064926 9.2112008107474 1.8353580751695 51.289832900052 0 0 56.8866621228 2.4603326301216 3.9224308223039 0 0 12.416797264491 0 47.14448881539 0 10.061093724726 0 9.2373574267549 10.50532292584 6.6386371275869 8.3625404857842 26.302299917627 7.2880029349914 28.221461441704 3.2883852200304 6.1143057627645 2.5484306711688 10.815109029328 2.1536346146573 32.205162582931 13.953572630959 23.843085025894 10.136085088638 32.087995373823 3.0501306092906 0 0 0 0 9.7210370152297 18.881042490219 20.947311179256 4.7268679872157 4.6720117688109 2.7570139164059 12.228235782681 4.8648460892889 5.1577323179334 19.662695973157 8.0172243758939 1.5492491259095 13.773685634315 6.8449621598677 15.711129593292 22.819021894225 1.2282914639179 0 26.200669236492 1.4042729547931 10.76271927919 2.7454491180117 1.6714585930144 4.6342068200799 6.1775099783725 0 25.467490544738 2.9460149238181 2.849948637858 1.2417522499913 0 0 11.310478544351 28.090422191195 2.2972198769723 3.3403606139302 5.8536891552254 4.8929540633912 4.724518986039 2.5550846834714 5.9337660879582 6.5900962245533 9.9752757902146 8.7987333277897 8.5830789911541 14.027244430224 0 10.936885784618 3.3307130351497 0.72324453315772 11.047043834106 10.009813001036 1.9360624446679 5.9841869813324 7.0233930358454 24.37168655599 17.33986805212 0 4.5160222760361 4.398766944111 7.6287389347073 18.179578188927 12.135290203327 39.155355272726 5.5958478615742 0 4.638912390682 0 7.9691746280199 8.5165776988504 12.654155183649 0 28.624983255343 8.5138528849777 24.743617433493 6.913213710451 4.6188211095229 9.6085761789454 5.2775092639649 0 9.4804466437285 7.6234733642804 10.859172879785 34.377050188223 11.931875680157 0 5.161885565204 11.931875680157 15.524227646785 8.4447312517862 0 10.044046026848 49.770381619504 12.335897191426 28.909069838282 9.8640086251123 29.213457565527 0 23.147412939577 12.041748339422 0 3.0922776821002 25.923503252047 13.557507461359 5.9074010718062 0 0 8.4556996482109 2.3491956782739 5.3122823736394 6.6677913563226 16.803530089061 0 18.800663203345 22.293544317962 7.8719625420156 27.890241946751 51.508580555266 0 0 0 0 105.71811632108 0 4.6171107702514 0 9.9655219419382 0 51.10074783435 22.023099580895 1.1970651699927 0 34.221267382296 57.933712698752 0 3.2226484014797 77.303641880012 27.352223178059 0 0 0 0 6.557525024743 25.673317207163 28.864235284295 35.755550759813 48.464287074474 2.9833229931281 34.117754118702 78.766482098266 151.04768584162 0 52.225690183657 9.0904109953245 5.8395007779105 56.6717842944 0 0 0 0 0 0 0 0 0 14.522947301637 2.2578095068095 0 0 0 0 16.888745064926 0 86.596997348435 0 6.871995677314 2.5339449646617 23.300591157662 8.2887618178347 0 0 0 11.110902873205 6.5141058612327 42.215200168371 26.471392822327 8.252140383427 19.890333433632 0 20.727762313561 13.140630317206 1.4353139488602 0 0 51.045516445822 2.5948973689561 9.4957446125453 0 37.313289444313 9.7466509481334 2.7072942596291 0 14.086767335269 0 0 0 5.7196078738594 15.525170667221 0 28.725237161348 0 30.965815563525 0 0 0 0 12.504700970695 0 22.031772741055 14.099113417484 25.514650853621 0 0 28.053289900265 0 0 16.168394225931 0 23.680362477325 0 0 0 0 2.8708151966018 0 0 29.980697153669 12.652082562707 0 0 15.449224663791 0 0 0 49.720443796267 35.05820673306 53.172286545101 97.67316942168 0 79.453874513292 0 0 0 0 56.048419784267 0 47.223397823266 0 0 0 0 0 6.7529552112426 0 25.514650853621 28.053289900265 65.239051566642 103.39149770765 5.9144709653227 0 0 0 0 0 0 0 0 0 6.8771021783227 8.1191262683789 0 0 0 0 0 7.6884648501743 15.487716609825 2.2125309442608 3.1323041386272 38.051870588924 63.811473494392 0 0 0 162.04564552403 0 5.772278235671 40.512688329451 0 0 
SCALARS S_Coverage double 1
LOOKUP_TABLE default
1 1 1 1 1 1 1 1 1 1 1 1 1 1 1 1 1 1 1 1 1 1 1 1 1 1 1 1 1 1 1 1 1 1 1 0 1 1 1 1 1 1 1 1 1 1 1 1 1 1 1 1 1 1 1 1 1 1 1 1 1 1 1 1 1 1 1 1 1 1 1 1 1 1 1 1 1 1 1 1 1 1 1 1 1 1 1 1 1 1 1 1 1 1 1 1 1 1 1 1 1 1 1 1 1 1 1 1 1 1 1 1 1 1 1 1 1 1 1 1 1 1 1 1 1 1 1 1 1 1 0 1 1 1 1 1 1 1 1 1 1 1 0 1 0 1 1 1 0 1 1 1 1 1 1 1 1 1 1 1 1 1 1 1 1 1 1 1 1 1 1 1 1 1 1 1 1 1 1 1 1 1 1 1 1 1 1 1 1 1 1 1 1 1 1 1 1 1 0 1 1 1 1 1 1 1 1 1 1 1 1 1 1 1 1 1 1 1 1 1 1 1 1 1 1 1 1 1 1 1 1 1 1 1 1 1 1 1 1 1 1 1 1 1 0 1 1 1 1 1 1 1 1 1 1 1 1 1 1 1 1 1 1 1 1 1 1 1 1 1 1 1 1 1 1 1 1 1 1 0 1 1 1 0 1 1 1 1 1 1 1 1 1 1 1 1 1 1 1 1 1 1 1 1 1 1 1 1 1 1 1 1 1 1 1 1 1 1 1 1 1 1 1 1 1 0 1 1 0 1 0 1 0 1 1 1 1 0 0 1 1 1 1 1 1 1 1 1 1 0 1 1 1 1 1 1 1 1 1 1 1 1 1 1 1 1 1 1 1 1 1 1 1 1 0 1 1 0 1 1 1 1 1 1 1 1 1 1 1 1 1 1 1 1 1 1 1 1 1 1 1 1 1 1 1 1 1 1 0 0 1 1 0 0 1 1 1 1 1 1 1 1 1 1 1 1 1 1 1 1 1 1 1 1 1 1 1 1 1 1 1 1 1 1 1 1 1 1 1 1 0 1 1 1 1 1 1 1 1 1 1 1 1 1 1 1 1 1 1 1 1 1 1 1 1 1 1 1 1 1 1 1 1 1 1 1 1 1 1 1 1 1 1 1 1 1 1 1 1 1 1 1 1 1 1 1 1 1 1 1 1 1 1 1 1 1 1 1 1 1 1 1 1 1 1 1 1 1 1 1 1 1 1 1 1 1 1 1 1 1 1 1 1 1 1 1 1 1 1 1 1 1 1 1 1 1 1 1 1 1 1 1 1 1 1 1 1 1 1 1 1 1 1 1 1 1 1 1 1 1 1 1 1 1 1 1 1 1 1 1 1 1 1 1 1 1 1 1 1 1 1 1 1 1 1 1 1 1 1 1 1 1 1 1 1 1 1 1 1 1 1 1 0 1 1 1 1 1 1 1 1 1 1 1 1 1 1 1 0 1 1 1 1 1 1 1 1 1 1 1 1 1 1 1 1 1 1 1 1 1 1 1 1 1 1 1 1 1 1 1 1 1 1 1 1 1 1 1 1 1 1 1 1 1 1 1 1 1 1 1 1 0 0 1 1 1 1 1 1 1 1 1 1 1 0 1 1 1 1 1 1 1 1 1 1 1 1 1 1 1 1 1 1 0 0 0 0 0 1 1 1 1 1 1 1 1 1 1 1 1 1 1 1 1 1 1 1 1 1 1 1 1 0 0 0 0 1 1 1 1 1 0 1 1 0 0 0 1 1 1 1 1 1 1 1 1 1 1 1 1 1 1 1 1 1 0 0 1 1 1 1 1 1 1 1 1 1 1 1 1 0 1 1 1 1 0 0 1 1 1 0 1 0 1 1 1 1 1 1 1 1 1 1 1 1 1 1 1 1 1 1 0 0 0 0 1 1 1 1 1 1 1 1 1 1 1 1 1 1 1 1 1 1 1 1 1 1 1 1 1 1 1 1 1 1 1 1 1 1 1 1 1 1 1 1 1 1 1 1 1 1 1 1 1 1 1 1 1 1 1 1 1 1 1 1 1 1 1 1 1 0 1 1 1 1 1 1 1 1 1 1 1 1 1 0 1 1 1 1 1 1 1 1 1 1 0 1 1 1 1 1 1 0 1 1 1 1 1 1 1 0 0 1 1 1 1 1 0 1 1 1 1 1 0 0 0 0 1 0 1 0 1 0 1 1 1 0 1 1 0 1 1 1 0 0 0 0 1 1 1 1 1 1 1 1 1 1 1 1 1 1 0 1 0 0 0 0 1 1 0 1 1 1 1 1 0 1 1 1 1 1 1 1 1 0 1 0 1 1 1 1 1 1 1 1 1 1 0 1 1 1 1 1 1 1 1 1 1 0 0 1 1 1 0 1 0 1 1 1 0 1 1 1 1 1 1 1 0 1 1 1 1 1 1 0 1 1 1 1 1 1 1 1 0 0 1 0 0 0 1 1 1 1 1 1 0 0 0 0 1 1 1 0 0 0 0 1 1 0 1 1 1 1 1 0 0 0 0 0 1 0 0 0 1 1 0 0 1 0 0 1 1 1 1 1 1 0 0 0 1 0 1 1 0 1 
SCALARS Velocity double 1
LOOKUP_TABLE default